b8f12 using xtal coords                                                 
Freq      RB3LYP                                                      Gen
Number of atoms                            I               20
Charge                                     I                0
Multiplicity                               I                1
Number of electrons                        I              148
Number of alpha electrons                  I               74
Number of beta electrons                   I               74
Number of basis functions                  I              328
Number of independant functions            I              328
Number of contracted shells                I               92
Highest angular momentum                   I                2
Largest degree of contraction              I                6
Number of primitive shells                 I              232
Viriral Ratio                              R      2.005269651060676E+00
SCF Energy                                 R     -1.397666102200563E+03
Total Energy                               R     -1.397666102200563E+03
RMS Force                                  R      5.009203351066497E-06
RMS Density                                R      4.429330241489396E-09
Atomic numbers                             I   N=          20
           5           5           5           5           5           5
           5           5           9           9           9           9
           9           9           9           9           9           9
           9           9
Nuclear charges                            R   N=          20
  5.00000000E+00  5.00000000E+00  5.00000000E+00  5.00000000E+00  5.00000000E+00
  5.00000000E+00  5.00000000E+00  5.00000000E+00  9.00000000E+00  9.00000000E+00
  9.00000000E+00  9.00000000E+00  9.00000000E+00  9.00000000E+00  9.00000000E+00
  9.00000000E+00  9.00000000E+00  9.00000000E+00  9.00000000E+00  9.00000000E+00
Current cartesian coordinates              R   N=          60
  5.61600396E-01 -2.45702779E+00 -1.60302191E+00  1.41781563E+00  3.35314584E-01
  1.23815174E-02  5.77821009E-01  4.53831573E-01  3.28018664E+00 -1.70276451E+00
 -6.56903761E-02 -2.48312060E-01  4.21465578E+00 -1.39864049E+00  1.53045117E-01
  2.30409182E+00  3.22954740E+00 -1.16570073E+00 -3.90382803E+00 -2.45046827E+00
 -2.53709987E-01 -3.42454528E+00  2.65726808E+00 -4.85693440E-01  5.39440817E-01
 -2.39461149E+00 -4.12658311E+00  6.42416424E-01 -4.75850792E+00 -4.96616831E-01
  9.42086316E-01  2.63171050E+00  4.44927414E+00 -4.96896981E-02 -1.53667064E+00
  4.64991482E+00  5.70423485E+00 -1.74953710E+00 -1.82209089E+00  5.10563273E+00
 -2.05379095E+00  2.40946504E+00  8.75257585E-01  5.26839474E+00 -7.28072853E-01
  4.37320707E+00  3.61031425E+00 -2.53006373E+00 -5.01041793E+00 -3.21688832E+00
 -2.36393022E+00 -4.75647264E+00 -3.31719635E+00  1.93343780E+00 -4.09028830E+00
  3.51012373E+00 -2.74742666E+00 -4.30032211E+00  3.83769582E+00  1.54537297E+00
Atom types                                 I   N=          20
           0           0           0           0           0           0
           0           0           0           0           0           0
           0           0           0           0           0           0
           0           0
Force Field                                I                0
MM charges                                 R   N=          20
  0.00000000E+00  0.00000000E+00  0.00000000E+00  0.00000000E+00  0.00000000E+00
  0.00000000E+00  0.00000000E+00  0.00000000E+00  0.00000000E+00  0.00000000E+00
  0.00000000E+00  0.00000000E+00  0.00000000E+00  0.00000000E+00  0.00000000E+00
  0.00000000E+00  0.00000000E+00  0.00000000E+00  0.00000000E+00  0.00000000E+00
ONIOM Charges                              I   N=           4
           0           0           0           0
ONIOM Multiplicities                       I   N=           4
           1           0           0           0
Atom Layers                                I   N=          20
           0           0           0           0           0           0
           0           0           0           0           0           0
           0           0           0           0           0           0
           0           0
Atom Modifiers                             I   N=          20
           0           0           0           0           0           0
           0           0           0           0           0           0
           0           0           0           0           0           0
           0           0
Atom types                                 I   N=          20
           0           0           0           0           0           0
           0           0           0           0           0           0
           0           0           0           0           0           0
           0           0
Link Atoms                                 I   N=          20
           0           0           0           0           0           0
           0           0           0           0           0           0
           0           0           0           0           0           0
           0           0
Atom Modified MM Charges                   R   N=          20
  0.00000000E+00  0.00000000E+00  0.00000000E+00  0.00000000E+00  0.00000000E+00
  0.00000000E+00  0.00000000E+00  0.00000000E+00  0.00000000E+00  0.00000000E+00
  0.00000000E+00  0.00000000E+00  0.00000000E+00  0.00000000E+00  0.00000000E+00
  0.00000000E+00  0.00000000E+00  0.00000000E+00  0.00000000E+00  0.00000000E+00
Link Distances                             R   N=          20
  0.00000000E+00  0.00000000E+00  0.00000000E+00  0.00000000E+00  0.00000000E+00
  0.00000000E+00  0.00000000E+00  0.00000000E+00  0.00000000E+00  0.00000000E+00
  0.00000000E+00  0.00000000E+00  0.00000000E+00  0.00000000E+00  0.00000000E+00
  0.00000000E+00  0.00000000E+00  0.00000000E+00  0.00000000E+00  0.00000000E+00
MxBond                                     I                5
NBond                                      I   N=          20
           3           5           3           3           3           3
           3           3           1           1           1           1
           1           1           1           1           1           1
           1           1
IBond                                      I   N=         100
           2           9          10           0           0           1
           3           4           5           6           2          11
          12           0           0           2           7           8
           0           0           2          13          14           0
           0           2          15          16           0           0
           4          17          18           0           0           4
          19          20           0           0           1           0
           0           0           0           1           0           0
           0           0           3           0           0           0
           0           3           0           0           0           0
           5           0           0           0           0           5
           0           0           0           0           6           0
           0           0           0           6           0           0
           0           0           7           0           0           0
           0           7           0           0           0           0
           8           0           0           0           0           8
           0           0           0           0
RBond                                      R   N=         100
  1.00000000E+00  1.00000000E+00  1.00000000E+00  0.00000000E+00  0.00000000E+00
  1.00000000E+00  1.00000000E+00  1.00000000E+00  1.00000000E+00  1.00000000E+00
  1.00000000E+00  1.00000000E+00  1.00000000E+00  0.00000000E+00  0.00000000E+00
  1.00000000E+00  1.00000000E+00  1.00000000E+00  0.00000000E+00  0.00000000E+00
  1.00000000E+00  1.00000000E+00  1.00000000E+00  0.00000000E+00  0.00000000E+00
  1.00000000E+00  1.00000000E+00  1.00000000E+00  0.00000000E+00  0.00000000E+00
  1.00000000E+00  1.00000000E+00  1.00000000E+00  0.00000000E+00  0.00000000E+00
  1.00000000E+00  1.00000000E+00  1.00000000E+00  0.00000000E+00  0.00000000E+00
  1.00000000E+00  0.00000000E+00  0.00000000E+00  0.00000000E+00  0.00000000E+00
  1.00000000E+00  0.00000000E+00  0.00000000E+00  0.00000000E+00  0.00000000E+00
  1.00000000E+00  0.00000000E+00  0.00000000E+00  0.00000000E+00  0.00000000E+00
  1.00000000E+00  0.00000000E+00  0.00000000E+00  0.00000000E+00  0.00000000E+00
  1.00000000E+00  0.00000000E+00  0.00000000E+00  0.00000000E+00  0.00000000E+00
  1.00000000E+00  0.00000000E+00  0.00000000E+00  0.00000000E+00  0.00000000E+00
  1.00000000E+00  0.00000000E+00  0.00000000E+00  0.00000000E+00  0.00000000E+00
  1.00000000E+00  0.00000000E+00  0.00000000E+00  0.00000000E+00  0.00000000E+00
  1.00000000E+00  0.00000000E+00  0.00000000E+00  0.00000000E+00  0.00000000E+00
  1.00000000E+00  0.00000000E+00  0.00000000E+00  0.00000000E+00  0.00000000E+00
  1.00000000E+00  0.00000000E+00  0.00000000E+00  0.00000000E+00  0.00000000E+00
  1.00000000E+00  0.00000000E+00  0.00000000E+00  0.00000000E+00  0.00000000E+00
Shell types                                I   N=          92
           0          -1          -1          -2           0          -1
          -1          -2           0          -1          -1          -2
           0          -1          -1          -2           0          -1
          -1          -2           0          -1          -1          -2
           0          -1          -1          -2           0          -1
          -1          -2           0          -1          -1          -1
          -2           0          -1          -1          -1          -2
           0          -1          -1          -1          -2           0
          -1          -1          -1          -2           0          -1
          -1          -1          -2           0          -1          -1
          -1          -2           0          -1          -1          -1
          -2           0          -1          -1          -1          -2
           0          -1          -1          -1          -2           0
          -1          -1          -1          -2           0          -1
          -1          -1          -2           0          -1          -1
          -1          -2
Number of primitives per shell             I   N=          92
           6           3           1           1           6           3
           1           1           6           3           1           1
           6           3           1           1           6           3
           1           1           6           3           1           1
           6           3           1           1           6           3
           1           1           6           3           1           1
           1           6           3           1           1           1
           6           3           1           1           1           6
           3           1           1           1           6           3
           1           1           1           6           3           1
           1           1           6           3           1           1
           1           6           3           1           1           1
           6           3           1           1           1           6
           3           1           1           1           6           3
           1           1           1           6           3           1
           1           1
Shell to atom map                          I   N=          92
           1           1           1           1           2           2
           2           2           3           3           3           3
           4           4           4           4           5           5
           5           5           6           6           6           6
           7           7           7           7           8           8
           8           8           9           9           9           9
           9          10          10          10          10          10
          11          11          11          11          11          12
          12          12          12          12          13          13
          13          13          13          14          14          14
          14          14          15          15          15          15
          15          16          16          16          16          16
          17          17          17          17          17          18
          18          18          18          18          19          19
          19          19          19          20          20          20
          20          20
Primitive exponents                        R   N=         232
  2.06888225E+03  3.10649570E+02  7.06830330E+01  1.98610803E+01  6.29930484E+00
  2.12702697E+00  4.72797107E+00  1.19033774E+00  3.59411683E-01  1.26751247E-01
  6.00000000E-01  2.06888225E+03  3.10649570E+02  7.06830330E+01  1.98610803E+01
  6.29930484E+00  2.12702697E+00  4.72797107E+00  1.19033774E+00  3.59411683E-01
  1.26751247E-01  6.00000000E-01  2.06888225E+03  3.10649570E+02  7.06830330E+01
  1.98610803E+01  6.29930484E+00  2.12702697E+00  4.72797107E+00  1.19033774E+00
  3.59411683E-01  1.26751247E-01  6.00000000E-01  2.06888225E+03  3.10649570E+02
  7.06830330E+01  1.98610803E+01  6.29930484E+00  2.12702697E+00  4.72797107E+00
  1.19033774E+00  3.59411683E-01  1.26751247E-01  6.00000000E-01  2.06888225E+03
  3.10649570E+02  7.06830330E+01  1.98610803E+01  6.29930484E+00  2.12702697E+00
  4.72797107E+00  1.19033774E+00  3.59411683E-01  1.26751247E-01  6.00000000E-01
  2.06888225E+03  3.10649570E+02  7.06830330E+01  1.98610803E+01  6.29930484E+00
  2.12702697E+00  4.72797107E+00  1.19033774E+00  3.59411683E-01  1.26751247E-01
  6.00000000E-01  2.06888225E+03  3.10649570E+02  7.06830330E+01  1.98610803E+01
  6.29930484E+00  2.12702697E+00  4.72797107E+00  1.19033774E+00  3.59411683E-01
  1.26751247E-01  6.00000000E-01  2.06888225E+03  3.10649570E+02  7.06830330E+01
  1.98610803E+01  6.29930484E+00  2.12702697E+00  4.72797107E+00  1.19033774E+00
  3.59411683E-01  1.26751247E-01  6.00000000E-01  7.00171309E+03  1.05136609E+03
  2.39285690E+02  6.73974453E+01  2.15199573E+01  7.40310130E+00  2.08479528E+01
  4.80830834E+00  1.34406986E+00  3.58151393E-01  1.07600000E-01  8.00000000E-01
  7.00171309E+03  1.05136609E+03  2.39285690E+02  6.73974453E+01  2.15199573E+01
  7.40310130E+00  2.08479528E+01  4.80830834E+00  1.34406986E+00  3.58151393E-01
  1.07600000E-01  8.00000000E-01  7.00171309E+03  1.05136609E+03  2.39285690E+02
  6.73974453E+01  2.15199573E+01  7.40310130E+00  2.08479528E+01  4.80830834E+00
  1.34406986E+00  3.58151393E-01  1.07600000E-01  8.00000000E-01  7.00171309E+03
  1.05136609E+03  2.39285690E+02  6.73974453E+01  2.15199573E+01  7.40310130E+00
  2.08479528E+01  4.80830834E+00  1.34406986E+00  3.58151393E-01  1.07600000E-01
  8.00000000E-01  7.00171309E+03  1.05136609E+03  2.39285690E+02  6.73974453E+01
  2.15199573E+01  7.40310130E+00  2.08479528E+01  4.80830834E+00  1.34406986E+00
  3.58151393E-01  1.07600000E-01  8.00000000E-01  7.00171309E+03  1.05136609E+03
  2.39285690E+02  6.73974453E+01  2.15199573E+01  7.40310130E+00  2.08479528E+01
  4.80830834E+00  1.34406986E+00  3.58151393E-01  1.07600000E-01  8.00000000E-01
  7.00171309E+03  1.05136609E+03  2.39285690E+02  6.73974453E+01  2.15199573E+01
  7.40310130E+00  2.08479528E+01  4.80830834E+00  1.34406986E+00  3.58151393E-01
  1.07600000E-01  8.00000000E-01  7.00171309E+03  1.05136609E+03  2.39285690E+02
  6.73974453E+01  2.15199573E+01  7.40310130E+00  2.08479528E+01  4.80830834E+00
  1.34406986E+00  3.58151393E-01  1.07600000E-01  8.00000000E-01  7.00171309E+03
  1.05136609E+03  2.39285690E+02  6.73974453E+01  2.15199573E+01  7.40310130E+00
  2.08479528E+01  4.80830834E+00  1.34406986E+00  3.58151393E-01  1.07600000E-01
  8.00000000E-01  7.00171309E+03  1.05136609E+03  2.39285690E+02  6.73974453E+01
  2.15199573E+01  7.40310130E+00  2.08479528E+01  4.80830834E+00  1.34406986E+00
  3.58151393E-01  1.07600000E-01  8.00000000E-01  7.00171309E+03  1.05136609E+03
  2.39285690E+02  6.73974453E+01  2.15199573E+01  7.40310130E+00  2.08479528E+01
  4.80830834E+00  1.34406986E+00  3.58151393E-01  1.07600000E-01  8.00000000E-01
  7.00171309E+03  1.05136609E+03  2.39285690E+02  6.73974453E+01  2.15199573E+01
  7.40310130E+00  2.08479528E+01  4.80830834E+00  1.34406986E+00  3.58151393E-01
  1.07600000E-01  8.00000000E-01
Contraction coefficients                   R   N=         232
  1.86627459E-03  1.42514817E-02  6.95516185E-02  2.32572933E-01  4.67078712E-01
  3.63431440E-01 -1.30393797E-01 -1.30788951E-01  1.13094448E+00  1.00000000E+00
  1.00000000E+00  1.86627459E-03  1.42514817E-02  6.95516185E-02  2.32572933E-01
  4.67078712E-01  3.63431440E-01 -1.30393797E-01 -1.30788951E-01  1.13094448E+00
  1.00000000E+00  1.00000000E+00  1.86627459E-03  1.42514817E-02  6.95516185E-02
  2.32572933E-01  4.67078712E-01  3.63431440E-01 -1.30393797E-01 -1.30788951E-01
  1.13094448E+00  1.00000000E+00  1.00000000E+00  1.86627459E-03  1.42514817E-02
  6.95516185E-02  2.32572933E-01  4.67078712E-01  3.63431440E-01 -1.30393797E-01
 -1.30788951E-01  1.13094448E+00  1.00000000E+00  1.00000000E+00  1.86627459E-03
  1.42514817E-02  6.95516185E-02  2.32572933E-01  4.67078712E-01  3.63431440E-01
 -1.30393797E-01 -1.30788951E-01  1.13094448E+00  1.00000000E+00  1.00000000E+00
  1.86627459E-03  1.42514817E-02  6.95516185E-02  2.32572933E-01  4.67078712E-01
  3.63431440E-01 -1.30393797E-01 -1.30788951E-01  1.13094448E+00  1.00000000E+00
  1.00000000E+00  1.86627459E-03  1.42514817E-02  6.95516185E-02  2.32572933E-01
  4.67078712E-01  3.63431440E-01 -1.30393797E-01 -1.30788951E-01  1.13094448E+00
  1.00000000E+00  1.00000000E+00  1.86627459E-03  1.42514817E-02  6.95516185E-02
  2.32572933E-01  4.67078712E-01  3.63431440E-01 -1.30393797E-01 -1.30788951E-01
  1.13094448E+00  1.00000000E+00  1.00000000E+00  1.81961690E-03  1.39160796E-02
  6.84053245E-02  2.33185760E-01  4.71267439E-01  3.56618546E-01 -1.08506975E-01
 -1.46451658E-01  1.12868858E+00  1.00000000E+00  1.00000000E+00  1.00000000E+00
  1.81961690E-03  1.39160796E-02  6.84053245E-02  2.33185760E-01  4.71267439E-01
  3.56618546E-01 -1.08506975E-01 -1.46451658E-01  1.12868858E+00  1.00000000E+00
  1.00000000E+00  1.00000000E+00  1.81961690E-03  1.39160796E-02  6.84053245E-02
  2.33185760E-01  4.71267439E-01  3.56618546E-01 -1.08506975E-01 -1.46451658E-01
  1.12868858E+00  1.00000000E+00  1.00000000E+00  1.00000000E+00  1.81961690E-03
  1.39160796E-02  6.84053245E-02  2.33185760E-01  4.71267439E-01  3.56618546E-01
 -1.08506975E-01 -1.46451658E-01  1.12868858E+00  1.00000000E+00  1.00000000E+00
  1.00000000E+00  1.81961690E-03  1.39160796E-02  6.84053245E-02  2.33185760E-01
  4.71267439E-01  3.56618546E-01 -1.08506975E-01 -1.46451658E-01  1.12868858E+00
  1.00000000E+00  1.00000000E+00  1.00000000E+00  1.81961690E-03  1.39160796E-02
  6.84053245E-02  2.33185760E-01  4.71267439E-01  3.56618546E-01 -1.08506975E-01
 -1.46451658E-01  1.12868858E+00  1.00000000E+00  1.00000000E+00  1.00000000E+00
  1.81961690E-03  1.39160796E-02  6.84053245E-02  2.33185760E-01  4.71267439E-01
  3.56618546E-01 -1.08506975E-01 -1.46451658E-01  1.12868858E+00  1.00000000E+00
  1.00000000E+00  1.00000000E+00  1.81961690E-03  1.39160796E-02  6.84053245E-02
  2.33185760E-01  4.71267439E-01  3.56618546E-01 -1.08506975E-01 -1.46451658E-01
  1.12868858E+00  1.00000000E+00  1.00000000E+00  1.00000000E+00  1.81961690E-03
  1.39160796E-02  6.84053245E-02  2.33185760E-01  4.71267439E-01  3.56618546E-01
 -1.08506975E-01 -1.46451658E-01  1.12868858E+00  1.00000000E+00  1.00000000E+00
  1.00000000E+00  1.81961690E-03  1.39160796E-02  6.84053245E-02  2.33185760E-01
  4.71267439E-01  3.56618546E-01 -1.08506975E-01 -1.46451658E-01  1.12868858E+00
  1.00000000E+00  1.00000000E+00  1.00000000E+00  1.81961690E-03  1.39160796E-02
  6.84053245E-02  2.33185760E-01  4.71267439E-01  3.56618546E-01 -1.08506975E-01
 -1.46451658E-01  1.12868858E+00  1.00000000E+00  1.00000000E+00  1.00000000E+00
  1.81961690E-03  1.39160796E-02  6.84053245E-02  2.33185760E-01  4.71267439E-01
  3.56618546E-01 -1.08506975E-01 -1.46451658E-01  1.12868858E+00  1.00000000E+00
  1.00000000E+00  1.00000000E+00
P(S=P) Contraction coefficients            R   N=         232
  0.00000000E+00  0.00000000E+00  0.00000000E+00  0.00000000E+00  0.00000000E+00
  0.00000000E+00  7.45975799E-02  3.07846677E-01  7.43456834E-01  1.00000000E+00
  0.00000000E+00  0.00000000E+00  0.00000000E+00  0.00000000E+00  0.00000000E+00
  0.00000000E+00  0.00000000E+00  7.45975799E-02  3.07846677E-01  7.43456834E-01
  1.00000000E+00  0.00000000E+00  0.00000000E+00  0.00000000E+00  0.00000000E+00
  0.00000000E+00  0.00000000E+00  0.00000000E+00  7.45975799E-02  3.07846677E-01
  7.43456834E-01  1.00000000E+00  0.00000000E+00  0.00000000E+00  0.00000000E+00
  0.00000000E+00  0.00000000E+00  0.00000000E+00  0.00000000E+00  7.45975799E-02
  3.07846677E-01  7.43456834E-01  1.00000000E+00  0.00000000E+00  0.00000000E+00
  0.00000000E+00  0.00000000E+00  0.00000000E+00  0.00000000E+00  0.00000000E+00
  7.45975799E-02  3.07846677E-01  7.43456834E-01  1.00000000E+00  0.00000000E+00
  0.00000000E+00  0.00000000E+00  0.00000000E+00  0.00000000E+00  0.00000000E+00
  0.00000000E+00  7.45975799E-02  3.07846677E-01  7.43456834E-01  1.00000000E+00
  0.00000000E+00  0.00000000E+00  0.00000000E+00  0.00000000E+00  0.00000000E+00
  0.00000000E+00  0.00000000E+00  7.45975799E-02  3.07846677E-01  7.43456834E-01
  1.00000000E+00  0.00000000E+00  0.00000000E+00  0.00000000E+00  0.00000000E+00
  0.00000000E+00  0.00000000E+00  0.00000000E+00  7.45975799E-02  3.07846677E-01
  7.43456834E-01  1.00000000E+00  0.00000000E+00  0.00000000E+00  0.00000000E+00
  0.00000000E+00  0.00000000E+00  0.00000000E+00  0.00000000E+00  7.16287242E-02
  3.45912103E-01  7.22469956E-01  1.00000000E+00  1.00000000E+00  0.00000000E+00
  0.00000000E+00  0.00000000E+00  0.00000000E+00  0.00000000E+00  0.00000000E+00
  0.00000000E+00  7.16287242E-02  3.45912103E-01  7.22469956E-01  1.00000000E+00
  1.00000000E+00  0.00000000E+00  0.00000000E+00  0.00000000E+00  0.00000000E+00
  0.00000000E+00  0.00000000E+00  0.00000000E+00  7.16287242E-02  3.45912103E-01
  7.22469956E-01  1.00000000E+00  1.00000000E+00  0.00000000E+00  0.00000000E+00
  0.00000000E+00  0.00000000E+00  0.00000000E+00  0.00000000E+00  0.00000000E+00
  7.16287242E-02  3.45912103E-01  7.22469956E-01  1.00000000E+00  1.00000000E+00
  0.00000000E+00  0.00000000E+00  0.00000000E+00  0.00000000E+00  0.00000000E+00
  0.00000000E+00  0.00000000E+00  7.16287242E-02  3.45912103E-01  7.22469956E-01
  1.00000000E+00  1.00000000E+00  0.00000000E+00  0.00000000E+00  0.00000000E+00
  0.00000000E+00  0.00000000E+00  0.00000000E+00  0.00000000E+00  7.16287242E-02
  3.45912103E-01  7.22469956E-01  1.00000000E+00  1.00000000E+00  0.00000000E+00
  0.00000000E+00  0.00000000E+00  0.00000000E+00  0.00000000E+00  0.00000000E+00
  0.00000000E+00  7.16287242E-02  3.45912103E-01  7.22469956E-01  1.00000000E+00
  1.00000000E+00  0.00000000E+00  0.00000000E+00  0.00000000E+00  0.00000000E+00
  0.00000000E+00  0.00000000E+00  0.00000000E+00  7.16287242E-02  3.45912103E-01
  7.22469956E-01  1.00000000E+00  1.00000000E+00  0.00000000E+00  0.00000000E+00
  0.00000000E+00  0.00000000E+00  0.00000000E+00  0.00000000E+00  0.00000000E+00
  7.16287242E-02  3.45912103E-01  7.22469956E-01  1.00000000E+00  1.00000000E+00
  0.00000000E+00  0.00000000E+00  0.00000000E+00  0.00000000E+00  0.00000000E+00
  0.00000000E+00  0.00000000E+00  7.16287242E-02  3.45912103E-01  7.22469956E-01
  1.00000000E+00  1.00000000E+00  0.00000000E+00  0.00000000E+00  0.00000000E+00
  0.00000000E+00  0.00000000E+00  0.00000000E+00  0.00000000E+00  7.16287242E-02
  3.45912103E-01  7.22469956E-01  1.00000000E+00  1.00000000E+00  0.00000000E+00
  0.00000000E+00  0.00000000E+00  0.00000000E+00  0.00000000E+00  0.00000000E+00
  0.00000000E+00  7.16287242E-02  3.45912103E-01  7.22469956E-01  1.00000000E+00
  1.00000000E+00  0.00000000E+00
Coordinates of each shell                  R   N=         276
  5.61600396E-01 -2.45702779E+00 -1.60302191E+00  5.61600396E-01 -2.45702779E+00
 -1.60302191E+00  5.61600396E-01 -2.45702779E+00 -1.60302191E+00  5.61600396E-01
 -2.45702779E+00 -1.60302191E+00  1.41781563E+00  3.35314584E-01  1.23815174E-02
  1.41781563E+00  3.35314584E-01  1.23815174E-02  1.41781563E+00  3.35314584E-01
  1.23815174E-02  1.41781563E+00  3.35314584E-01  1.23815174E-02  5.77821009E-01
  4.53831573E-01  3.28018664E+00  5.77821009E-01  4.53831573E-01  3.28018664E+00
  5.77821009E-01  4.53831573E-01  3.28018664E+00  5.77821009E-01  4.53831573E-01
  3.28018664E+00 -1.70276451E+00 -6.56903761E-02 -2.48312060E-01 -1.70276451E+00
 -6.56903761E-02 -2.48312060E-01 -1.70276451E+00 -6.56903761E-02 -2.48312060E-01
 -1.70276451E+00 -6.56903761E-02 -2.48312060E-01  4.21465578E+00 -1.39864049E+00
  1.53045117E-01  4.21465578E+00 -1.39864049E+00  1.53045117E-01  4.21465578E+00
 -1.39864049E+00  1.53045117E-01  4.21465578E+00 -1.39864049E+00  1.53045117E-01
  2.30409182E+00  3.22954740E+00 -1.16570073E+00  2.30409182E+00  3.22954740E+00
 -1.16570073E+00  2.30409182E+00  3.22954740E+00 -1.16570073E+00  2.30409182E+00
  3.22954740E+00 -1.16570073E+00 -3.90382803E+00 -2.45046827E+00 -2.53709987E-01
 -3.90382803E+00 -2.45046827E+00 -2.53709987E-01 -3.90382803E+00 -2.45046827E+00
 -2.53709987E-01 -3.90382803E+00 -2.45046827E+00 -2.53709987E-01 -3.42454528E+00
  2.65726808E+00 -4.85693440E-01 -3.42454528E+00  2.65726808E+00 -4.85693440E-01
 -3.42454528E+00  2.65726808E+00 -4.85693440E-01 -3.42454528E+00  2.65726808E+00
 -4.85693440E-01  5.39440817E-01 -2.39461149E+00 -4.12658311E+00  5.39440817E-01
 -2.39461149E+00 -4.12658311E+00  5.39440817E-01 -2.39461149E+00 -4.12658311E+00
  5.39440817E-01 -2.39461149E+00 -4.12658311E+00  5.39440817E-01 -2.39461149E+00
 -4.12658311E+00  6.42416424E-01 -4.75850792E+00 -4.96616831E-01  6.42416424E-01
 -4.75850792E+00 -4.96616831E-01  6.42416424E-01 -4.75850792E+00 -4.96616831E-01
  6.42416424E-01 -4.75850792E+00 -4.96616831E-01  6.42416424E-01 -4.75850792E+00
 -4.96616831E-01  9.42086316E-01  2.63171050E+00  4.44927414E+00  9.42086316E-01
  2.63171050E+00  4.44927414E+00  9.42086316E-01  2.63171050E+00  4.44927414E+00
  9.42086316E-01  2.63171050E+00  4.44927414E+00  9.42086316E-01  2.63171050E+00
  4.44927414E+00 -4.96896981E-02 -1.53667064E+00  4.64991482E+00 -4.96896981E-02
 -1.53667064E+00  4.64991482E+00 -4.96896981E-02 -1.53667064E+00  4.64991482E+00
 -4.96896981E-02 -1.53667064E+00  4.64991482E+00 -4.96896981E-02 -1.53667064E+00
  4.64991482E+00  5.70423485E+00 -1.74953710E+00 -1.82209089E+00  5.70423485E+00
 -1.74953710E+00 -1.82209089E+00  5.70423485E+00 -1.74953710E+00 -1.82209089E+00
  5.70423485E+00 -1.74953710E+00 -1.82209089E+00  5.70423485E+00 -1.74953710E+00
 -1.82209089E+00  5.10563273E+00 -2.05379095E+00  2.40946504E+00  5.10563273E+00
 -2.05379095E+00  2.40946504E+00  5.10563273E+00 -2.05379095E+00  2.40946504E+00
  5.10563273E+00 -2.05379095E+00  2.40946504E+00  5.10563273E+00 -2.05379095E+00
  2.40946504E+00  8.75257585E-01  5.26839474E+00 -7.28072853E-01  8.75257585E-01
  5.26839474E+00 -7.28072853E-01  8.75257585E-01  5.26839474E+00 -7.28072853E-01
  8.75257585E-01  5.26839474E+00 -7.28072853E-01  8.75257585E-01  5.26839474E+00
 -7.28072853E-01  4.37320707E+00  3.61031425E+00 -2.53006373E+00  4.37320707E+00
  3.61031425E+00 -2.53006373E+00  4.37320707E+00  3.61031425E+00 -2.53006373E+00
  4.37320707E+00  3.61031425E+00 -2.53006373E+00  4.37320707E+00  3.61031425E+00
 -2.53006373E+00 -5.01041793E+00 -3.21688832E+00 -2.36393022E+00 -5.01041793E+00
 -3.21688832E+00 -2.36393022E+00 -5.01041793E+00 -3.21688832E+00 -2.36393022E+00
 -5.01041793E+00 -3.21688832E+00 -2.36393022E+00 -5.01041793E+00 -3.21688832E+00
 -2.36393022E+00 -4.75647264E+00 -3.31719635E+00  1.93343780E+00 -4.75647264E+00
 -3.31719635E+00  1.93343780E+00 -4.75647264E+00 -3.31719635E+00  1.93343780E+00
 -4.75647264E+00 -3.31719635E+00  1.93343780E+00 -4.75647264E+00 -3.31719635E+00
  1.93343780E+00 -4.09028830E+00  3.51012373E+00 -2.74742666E+00 -4.09028830E+00
  3.51012373E+00 -2.74742666E+00 -4.09028830E+00  3.51012373E+00 -2.74742666E+00
 -4.09028830E+00  3.51012373E+00 -2.74742666E+00 -4.09028830E+00  3.51012373E+00
 -2.74742666E+00 -4.30032211E+00  3.83769582E+00  1.54537297E+00 -4.30032211E+00
  3.83769582E+00  1.54537297E+00 -4.30032211E+00  3.83769582E+00  1.54537297E+00
 -4.30032211E+00  3.83769582E+00  1.54537297E+00 -4.30032211E+00  3.83769582E+00
  1.54537297E+00
Alpha Orbital Energies                     R   N=         328
 -2.47690497E+01 -2.47688643E+01 -2.47670833E+01 -2.47646950E+01 -2.47646675E+01
 -2.47645340E+01 -2.47603817E+01 -2.47593487E+01 -2.47588889E+01 -2.47572556E+01
 -2.47567938E+01 -2.47535233E+01 -6.92688839E+00 -6.92522976E+00 -6.92301468E+00
 -6.91088476E+00 -6.90303054E+00 -6.89657317E+00 -6.82778822E+00 -6.77493345E+00
 -1.29133813E+00 -1.28818822E+00 -1.28563460E+00 -1.27971123E+00 -1.27852329E+00
 -1.27585974E+00 -1.26357304E+00 -1.26007490E+00 -1.25860394E+00 -1.25268163E+00
 -1.25181724E+00 -1.24719397E+00 -7.25571264E-01 -6.45268909E-01 -6.32775275E-01
 -6.23171151E-01 -6.21778000E-01 -6.19165067E-01 -6.07535375E-01 -5.94505194E-01
 -5.87078940E-01 -5.83859242E-01 -5.80480386E-01 -5.74695540E-01 -5.73360967E-01
 -5.69675511E-01 -5.59699885E-01 -5.58241815E-01 -5.50334789E-01 -5.43503862E-01
 -5.34774525E-01 -5.29787863E-01 -5.27303129E-01 -5.23056375E-01 -5.18626711E-01
 -5.10275099E-01 -4.94560023E-01 -4.88191862E-01 -4.85054100E-01 -4.83373576E-01
 -4.81021207E-01 -4.79043224E-01 -4.74472081E-01 -4.71298974E-01 -4.68590027E-01