Sender: LSF System <operator@columbus4.rl.ac.uk>
Subject: Job 71617: <bf_2_6freq> Done

Job <bf_2_6freq> was submitted from host <columbus.rl.ac.uk> by user <im>.
Job was executed on host(s) <columbus4.rl.ac.uk>, in queue <e7>, as user <im>.
</home/columbus_chem/im> was used as the home directory.
</home/columbus_chem/im> was used as the working directory.
Started at Sun Mar  4 19:06:39 2001
Results reported at Mon Mar  5 01:34:43 2001

Your job looked like:

------------------------------------------------------------
# LSBATCH: User input
# @$-r bf_2_6freq
# @$-lt 100:0:0
# @$-lm 300000
# @$-eo
rung98 <<EOF
%Mem=24000000
%chk=b8f12/b8f12_2.chk
# hf/6-31g* freq geom=checkpoint guess=read 

b8f12 using xtal coords

0 1

5                     0.920189   -1.288613   -0.514510
5                     0.073726    0.229470   -0.646547
5                     0.536162    1.536852    0.394233
5                    -0.417825   -0.442498    0.869626
5                     1.316795    0.622784   -1.775790
5                    -1.311916    0.349973   -1.595908
5                     0.566491   -0.974725    2.150555
5                    -2.084340   -0.240473    1.106500
9                     0.403591   -2.425808   -0.984709
9                     2.201425   -1.292501   -0.111096
9                    -0.162329    2.672715    0.439605
9                     1.692330    1.481242    1.077177
9                     1.706324   -0.241925   -2.724250
9                     1.866718    1.845510   -1.804128
9                    -2.502674   -0.105781   -1.113788
9                    -1.360319    0.847569   -2.838994
9                     1.034173   -2.230728    2.193086
9                     0.814008   -0.202177    3.212123
9                    -2.926847   -1.243619    1.387768
9                    -2.543778    1.010631    1.273785


















(... more ...)
------------------------------------------------------------

Successfully completed.

Resource usage summary:

    CPU time   :  23217.52 sec.
    Max Memory :       129 MB
    Max Swap   :       411 MB

    Max Processes  :         7

The output (if any) follows:

expr: syntax error
 Entering Gaussian System, Link 0=/usr/local/g98/g98
 Initial command:
 /usr/local/g98/l1.exe /tmp/Gau-40322.inp -scrdir=/tmp/
 Entering Link 1 = /usr/local/g98/l1.exe PID=     40326.
  
 Copyright (c) 1988,1990,1992,1993,1995,1998 Gaussian, Inc.
                  All Rights Reserved.
  
 This is part of the Gaussian(R) 98 program.  It is based on
 the Gaussian 94(TM) system (copyright 1995 Gaussian, Inc.),
 the Gaussian 92(TM) system (copyright 1992 Gaussian, Inc.),
 the Gaussian 90(TM) system (copyright 1990 Gaussian, Inc.),
 the Gaussian 88(TM) system (copyright 1988 Gaussian, Inc.),
 the Gaussian 86(TM) system (copyright 1986 Carnegie Mellon
 University), and the Gaussian 82(TM) system (copyright 1983
 Carnegie Mellon University). Gaussian is a federally registered
 trademark of Gaussian, Inc.
  
 This software contains proprietary and confidential information,
 including trade secrets, belonging to Gaussian, Inc.
  
 This software is provided under written license and may be
 used, copied, transmitted, or stored only in accord with that
 written license.
  
 The following legend is applicable only to US Government
 contracts under DFARS:
  
                    RESTRICTED RIGHTS LEGEND
  
 Use, duplication or disclosure by the US Government is subject
 to restrictions as set forth in subparagraph (c)(1)(ii) of the
 Rights in Technical Data and Computer Software clause at DFARS
 252.227-7013.
  
 Gaussian, Inc.
 Carnegie Office Park, Building 6, Pittsburgh, PA 15106 USA
  
 The following legend is applicable only to US Government
 contracts under FAR:
  
                    RESTRICTED RIGHTS LEGEND
  
 Use, reproduction and disclosure by the US Government is subject
 to restrictions as set forth in subparagraph (c) of the
 Commercial Computer Software - Restricted Rights clause at FAR
 52.227-19.
  
 Gaussian, Inc.
 Carnegie Office Park, Building 6, Pittsburgh, PA 15106 USA
  
  
 ---------------------------------------------------------------
 Warning -- This program may not be used in any manner that
 competes with the business of Gaussian, Inc. or will provide
 assistance to any competitor of Gaussian, Inc.  The licensee
 of this program is prohibited from giving any competitor of
 Gaussian, Inc. access to this program.  By using this program,
 the user acknowledges that Gaussian, Inc. is engaged in the
 business of creating and licensing software in the field of
 computational chemistry and represents and warrants to the
 licensee that it is not a competitor of Gaussian, Inc. and that
 it will not use this program in any manner prohibited above.
 ---------------------------------------------------------------
  

 Cite this work as:
 Gaussian 98, Revision A.7,
 M. J. Frisch, G. W. Trucks, H. B. Schlegel, G. E. Scuseria, 
 M. A. Robb, J. R. Cheeseman, V. G. Zakrzewski, J. A. Montgomery, Jr., 
 R. E. Stratmann, J. C. Burant, S. Dapprich, J. M. Millam, 
 A. D. Daniels, K. N. Kudin, M. C. Strain, O. Farkas, J. Tomasi, 
 V. Barone, M. Cossi, R. Cammi, B. Mennucci, C. Pomelli, C. Adamo, 
 S. Clifford, J. Ochterski, G. A. Petersson, P. Y. Ayala, Q. Cui, 
 K. Morokuma, D. K. Malick, A. D. Rabuck, K. Raghavachari, 
 J. B. Foresman, J. Cioslowski, J. V. Ortiz, A. G. Baboul, 
 B. B. Stefanov, G. Liu, A. Liashenko, P. Piskorz, I. Komaromi, 
 R. Gomperts, R. L. Martin, D. J. Fox, T. Keith, M. A. Al-Laham, 
 C. Y. Peng, A. Nanayakkara, C. Gonzalez, M. Challacombe, 
 P. M. W. Gill, B. Johnson, W. Chen, M. W. Wong, J. L. Andres, 
 C. Gonzalez, M. Head-Gordon, E. S. Replogle, and J. A. Pople, 
 Gaussian, Inc., Pittsburgh PA, 1998.

 *************************************************
 Gaussian 98:  DEC-AXP-OSF/1-G98RevA.7 11-Apr-1999
                     4-Mar-2001 
 *************************************************
 %Mem=24000000
 %chk=b8f12/b8f12_2.chk
 Default route:  MaxDisk=5GB
 -------------------------------------------
 # hf/6-31g* freq geom=checkpoint guess=read
 -------------------------------------------
 1/10=4,29=2,30=1,38=1/1,3;
 2//2;
 3/5=1,6=6,7=1,11=9,25=1,30=1/1,2,3;
 4/5=1/1;
 5/5=2/2;
 8/6=4,11=11,23=2,27=671088640/1;
 10/13=10/2;
 11/6=2,8=1,9=11,15=111,16=11/1,2,10;
 10/6=1/2;
 6/7=2,8=2,9=2,10=2,18=1,28=1/1;
 7/8=1,10=1,25=1/1,2,3,16;
 1/10=4,30=1/3;
 99//99;
 -----------------------
 b8f12 using xtal coords
 -----------------------
 Redundant internal coordinates taken from checkpointfile:
 b8f12/b8f12_2.chk
 Charge =  0 Multiplicity = 1
 B,0,1.0424302193,-1.1248931892,-0.4029768457
 B,0,0.0428194886,0.2827106348,-0.6413530141
 B,0,0.2928852379,1.7678450471,0.2613396532
 B,0,-0.3099846592,-0.4985217852,0.8812085236
 B,0,1.38019219,0.4727437957,-1.8027037655
 B,0,-1.343199444,0.3524834173,-1.6642670413
 B,0,0.5884759168,-1.2753979929,2.135683307
 B,0,-1.9519225314,-0.2165672026,1.3010908828
 F,0,0.6540937265,-2.268133617,-0.9152045361
 F,0,2.2844773604,-1.0566457422,0.0612429347
 F,0,-0.3107312159,2.8490800933,-0.1570879133
 F,0,1.0665853729,1.8788718368,1.3123766128
 F,0,1.5529450616,-0.2863279488,-2.8473104246
 F,0,2.104821462,1.5581197374,-1.7154860738
 F,0,-2.5587630643,0.1879105718,-1.1720739026
 F,0,-1.2850949966,0.6237270768,-2.9465974634
 F,0,0.6831520554,-2.5774465028,2.1990131322
 F,0,1.1004118018,-0.5685696679,3.1046581622
 F,0,-2.8099091161,-1.196154383,1.3951993781
 F,0,-2.3384864578,0.9886781427,1.6434802603
 Recover connectivity data from disk.

 GradGradGradGradGradGradGradGradGradGradGradGradGradGradGradGradGradGrad
 Berny optimization.
 Initialization pass.
                         ----------------------------
                         !    Initial Parameters    !
                         ! (Angstroms and Degrees)  !
 ------------------------                            -------------------------
 ! Name  Definition              Value          Derivative Info.             !
 -----------------------------------------------------------------------------
 ! R1    R(1,2)                  1.7428         calculate D2E/DX2 analyticall!
 ! R2    R(1,4)                  1.9674         calculate D2E/DX2 analyticall!
 ! R3    R(1,9)                  1.3116         calculate D2E/DX2 analyticall!
 ! R4    R(1,10)                 1.3277         calculate D2E/DX2 analyticall!
 ! R5    R(2,3)                  1.7559         calculate D2E/DX2 analyticall!
 ! R6    R(2,4)                  1.7473         calculate D2E/DX2 analyticall!
 ! R7    R(2,5)                  1.7814         calculate D2E/DX2 analyticall!
 ! R8    R(2,6)                  1.724          calculate D2E/DX2 analyticall!
 ! R9    R(3,11)                 1.3071         calculate D2E/DX2 analyticall!
 ! R10   R(3,12)                 1.3098         calculate D2E/DX2 analyticall!
 ! R11   R(4,7)                  1.7276         calculate D2E/DX2 analyticall!
 ! R12   R(4,8)                  1.7181         calculate D2E/DX2 analyticall!
 ! R13   R(5,13)                 1.3028         calculate D2E/DX2 analyticall!
 ! R14   R(5,14)                 1.308          calculate D2E/DX2 analyticall!
 ! R15   R(6,15)                 1.3217         calculate D2E/DX2 analyticall!
 ! R16   R(6,16)                 1.312          calculate D2E/DX2 analyticall!
 ! R17   R(7,17)                 1.307          calculate D2E/DX2 analyticall!
 ! R18   R(7,18)                 1.3041         calculate D2E/DX2 analyticall!
 ! R19   R(8,19)                 1.3056         calculate D2E/DX2 analyticall!
 ! R20   R(8,20)                 1.3112         calculate D2E/DX2 analyticall!
 ! A1    A(2,1,9)              118.7357         calculate D2E/DX2 analyticall!
 ! A2    A(2,1,10)             122.8785         calculate D2E/DX2 analyticall!
 ! A3    A(4,1,9)              109.2028         calculate D2E/DX2 analyticall!
 ! A4    A(4,1,10)             113.4832         calculate D2E/DX2 analyticall!
 ! A5    A(9,1,10)             117.28           calculate D2E/DX2 analyticall!
 ! A6    A(1,2,3)              122.0821         calculate D2E/DX2 analyticall!
 ! A7    A(1,2,5)               75.2105         calculate D2E/DX2 analyticall!
 ! A8    A(1,2,6)              125.0962         calculate D2E/DX2 analyticall!
 ! A9    A(3,2,4)               87.6472         calculate D2E/DX2 analyticall!
 ! A10   A(3,2,5)               97.9328         calculate D2E/DX2 analyticall!
 ! A11   A(3,2,6)              112.6623         calculate D2E/DX2 analyticall!
 ! A12   A(4,2,5)              140.118          calculate D2E/DX2 analyticall!
 ! A13   A(4,2,6)              111.8875         calculate D2E/DX2 analyticall!
 ! A14   A(5,2,6)              102.2646         calculate D2E/DX2 analyticall!
 ! A15   A(2,3,11)             117.9902         calculate D2E/DX2 analyticall!
 ! A16   A(2,3,12)             124.6357         calculate D2E/DX2 analyticall!
 ! A17   A(11,3,12)            117.3573         calculate D2E/DX2 analyticall!
 ! A18   A(1,4,7)               88.4704         calculate D2E/DX2 analyticall!
 ! A19   A(1,4,8)              150.3127         calculate D2E/DX2 analyticall!
 ! A20   A(2,4,7)              136.7871         calculate D2E/DX2 analyticall!
 ! A21   A(2,4,8)              109.4238         calculate D2E/DX2 analyticall!
 ! A22   A(7,4,8)              113.1639         calculate D2E/DX2 analyticall!
 ! A23   A(2,5,13)             124.0648         calculate D2E/DX2 analyticall!
 ! A24   A(2,5,14)             117.45           calculate D2E/DX2 analyticall!
 ! A25   A(13,5,14)            117.6137         calculate D2E/DX2 analyticall!
 ! A26   A(2,6,15)             120.8897         calculate D2E/DX2 analyticall!
 ! A27   A(2,6,16)             123.5509         calculate D2E/DX2 analyticall!
 ! A28   A(15,6,16)            115.4957         calculate D2E/DX2 analyticall!
 ! A29   A(4,7,17)             121.3887         calculate D2E/DX2 analyticall!
 ! A30   A(4,7,18)             119.9988         calculate D2E/DX2 analyticall!
 ! A31   A(17,7,18)            118.393          calculate D2E/DX2 analyticall!
 ! A32   A(4,8,19)             121.5017         calculate D2E/DX2 analyticall!
 ! A33   A(4,8,20)             119.7631         calculate D2E/DX2 analyticall!
 ! A34   A(19,8,20)            118.4961         calculate D2E/DX2 analyticall!
 ! D1    D(9,1,2,3)            167.3377         calculate D2E/DX2 analyticall!
 ! D2    D(9,1,2,5)           -102.4923         calculate D2E/DX2 analyticall!
 ! D3    D(9,1,2,6)             -7.7313         calculate D2E/DX2 analyticall!
 ! D4    D(10,1,2,3)           -25.0222         calculate D2E/DX2 analyticall!
 ! D5    D(10,1,2,5)            65.1478         calculate D2E/DX2 analyticall!
 ! D6    D(10,1,2,6)           159.9088         calculate D2E/DX2 analyticall!
 ! D7    D(9,1,4,7)             93.3025         calculate D2E/DX2 analyticall!
 ! D8    D(9,1,4,8)            -45.0881         calculate D2E/DX2 analyticall!
 ! D9    D(10,1,4,7)           -39.5796         calculate D2E/DX2 analyticall!
 ! D10   D(10,1,4,8)          -177.9701         calculate D2E/DX2 analyticall!
 ! D11   D(1,2,3,11)           166.4927         calculate D2E/DX2 analyticall!
 ! D12   D(1,2,3,12)           -11.9741         calculate D2E/DX2 analyticall!
 ! D13   D(4,2,3,11)          -130.6562         calculate D2E/DX2 analyticall!
 ! D14   D(4,2,3,12)            50.877          calculate D2E/DX2 analyticall!
 ! D15   D(5,2,3,11)            89.016          calculate D2E/DX2 analyticall!
 ! D16   D(5,2,3,12)           -89.4507         calculate D2E/DX2 analyticall!
 ! D17   D(6,2,3,11)           -17.8782         calculate D2E/DX2 analyticall!
 ! D18   D(6,2,3,12)           163.655          calculate D2E/DX2 analyticall!
 ! D19   D(3,2,4,7)            -86.8908         calculate D2E/DX2 analyticall!
 ! D20   D(3,2,4,8)             83.0088         calculate D2E/DX2 analyticall!
 ! D21   D(5,2,4,7)             12.679          calculate D2E/DX2 analyticall!
 ! D22   D(5,2,4,8)           -177.4214         calculate D2E/DX2 analyticall!
 ! D23   D(6,2,4,7)            159.5889         calculate D2E/DX2 analyticall!
 ! D24   D(6,2,4,8)            -30.5115         calculate D2E/DX2 analyticall!
 ! D25   D(1,2,5,13)            68.4664         calculate D2E/DX2 analyticall!
 ! D26   D(1,2,5,14)          -122.4999         calculate D2E/DX2 analyticall!
 ! D27   D(3,2,5,13)          -170.3454         calculate D2E/DX2 analyticall!
 ! D28   D(3,2,5,14)            -1.3117         calculate D2E/DX2 analyticall!
 ! D29   D(4,2,5,13)            93.7933         calculate D2E/DX2 analyticall!
 ! D30   D(4,2,5,14)           -97.173          calculate D2E/DX2 analyticall!
 ! D31   D(6,2,5,13)           -54.9793         calculate D2E/DX2 analyticall!
 ! D32   D(6,2,5,14)           114.0543         calculate D2E/DX2 analyticall!
 ! D33   D(1,2,6,15)            96.6102         calculate D2E/DX2 analyticall!
 ! D34   D(1,2,6,16)           -86.4264         calculate D2E/DX2 analyticall!
 ! D35   D(3,2,6,15)           -78.8632         calculate D2E/DX2 analyticall!
 ! D36   D(3,2,6,16)            98.1002         calculate D2E/DX2 analyticall!
 ! D37   D(4,2,6,15)            18.0174         calculate D2E/DX2 analyticall!
 ! D38   D(4,2,6,16)          -165.0192         calculate D2E/DX2 analyticall!
 ! D39   D(5,2,6,15)           177.0247         calculate D2E/DX2 analyticall!
 ! D40   D(5,2,6,16)            -6.0119         calculate D2E/DX2 analyticall!
 ! D41   D(1,4,7,17)           -67.8722         calculate D2E/DX2 analyticall!
 ! D42   D(1,4,7,18)           117.5986         calculate D2E/DX2 analyticall!
 ! D43   D(2,4,7,17)           -99.196          calculate D2E/DX2 analyticall!
 ! D44   D(2,4,7,18)            86.2748         calculate D2E/DX2 analyticall!
 ! D45   D(8,4,7,17)            91.1676         calculate D2E/DX2 analyticall!
 ! D46   D(8,4,7,18)           -83.3616         calculate D2E/DX2 analyticall!
 ! D47   D(1,4,8,19)            62.6476         calculate D2E/DX2 analyticall!
 ! D48   D(1,4,8,20)          -123.0552         calculate D2E/DX2 analyticall!
 ! D49   D(2,4,8,19)           116.374          calculate D2E/DX2 analyticall!
 ! D50   D(2,4,8,20)           -69.3289         calculate D2E/DX2 analyticall!
 ! D51   D(7,4,8,19)           -71.1309         calculate D2E/DX2 analyticall!
 ! D52   D(7,4,8,20)           103.1663         calculate D2E/DX2 analyticall!
 -----------------------------------------------------------------------------
 Trust Radius=3.00D-01 FncErr=1.00D-07 GrdErr=1.00D-07
 Number of steps in this run= 116 maximum allowed number of steps= 120.
 GradGradGradGradGradGradGradGradGradGradGradGradGradGradGradGradGradGrad

                          Input orientation:                          
 ---------------------------------------------------------------------
 Center     Atomic     Atomic              Coordinates (Angstroms)
 Number     Number      Type              X           Y           Z
 ---------------------------------------------------------------------
    1          5             0        1.042430   -1.124893   -0.402977
    2          5             0        0.042819    0.282711   -0.641353
    3          5             0        0.292885    1.767845    0.261340
    4          5             0       -0.309985   -0.498522    0.881209
    5          5             0        1.380192    0.472744   -1.802704
    6          5             0       -1.343199    0.352483   -1.664267
    7          5             0        0.588476   -1.275398    2.135683
    8          5             0       -1.951923   -0.216567    1.301091
    9          9             0        0.654094   -2.268134   -0.915205
   10          9             0        2.284477   -1.056646    0.061243
   11          9             0       -0.310731    2.849080   -0.157088
   12          9             0        1.066585    1.878872    1.312377
   13          9             0        1.552945   -0.286328   -2.847310
   14          9             0        2.104821    1.558120   -1.715486
   15          9             0       -2.558763    0.187911   -1.172074
   16          9             0       -1.285095    0.623727   -2.946597
   17          9             0        0.683152   -2.577447    2.199013
   18          9             0        1.100412   -0.568570    3.104658
   19          9             0       -2.809909   -1.196154    1.395199
   20          9             0       -2.338486    0.988678    1.643480
 ---------------------------------------------------------------------
                    Distance matrix (angstroms):
                    1          2          3          4          5
     1  B    0.000000
     2  B    1.742812   0.000000
     3  B    3.061220   1.755851   0.000000
     4  B    1.967358   1.747280   2.425718   0.000000
     5  B    2.150759   1.781408   2.668295   3.317143   0.000000
     6  B    3.076479   1.724027   2.896201   2.875967   2.729558
     7  B    2.583316   3.230693   3.586344   1.727563   4.381062
     8  B    3.563012   2.828668   3.171457   1.718069   4.605614
     9  F    1.311557   2.637320   4.219461   2.699643   2.971074
    10  F    1.327719   2.704172   3.461824   2.777603   2.575085
    11  F    4.205231   2.635482   1.307097   3.504925   3.348768
    12  F    3.459136   2.722662   1.309816   2.780800   3.432094
    13  F    2.634119   2.733227   3.933330   4.173414   1.302780
    14  F    3.170160   2.651845   2.689784   4.099254   1.307951
    15  F    3.909419   2.656856   3.561287   3.121564   3.999274
    16  F    3.865883   2.682126   3.753650   4.106383   2.904315
    17  F    3.001557   4.081446   4.773724   2.654215   5.079691
    18  F    3.551952   3.984442   3.767677   2.633980   5.024422
    19  F    4.251945   3.804293   4.438273   2.645846   5.528902
    20  F    4.481715   3.374829   3.072707   2.628239   5.096169
                    6          7          8          9         10
     6  B    0.000000
     7  B    4.563002   0.000000
     8  B    3.080213   2.875985   0.000000
     9  F    3.379040   3.209010   3.989011   0.000000
    10  F    4.257120   2.688415   4.493333   2.253731   0.000000
    11  F    3.093635   4.803821   3.770675   5.262272   4.694408
    12  F    4.122782   3.294820   3.674559   4.725455   3.415532
    13  F    3.193012   5.170946   5.431224   2.910072   3.096484
    14  F    3.653085   5.015938   5.357837   4.169565   3.166392
    15  F    1.321716   4.794543   2.578449   4.052232   5.150434
    16  F    1.311991   5.739906   4.381051   4.031113   4.961109
    17  F    5.255047   1.307021   3.650155   3.129676   3.073620
    18  F    5.437115   1.304069   3.562795   4.387142   3.301909
    19  F    3.729591   3.479025   1.305599   4.299584   5.267986
    20  F    3.512340   3.733017   1.311213   5.109719   5.297039
                   11         12         13         14         15
    11  F    0.000000
    12  F    2.235538   0.000000
    13  F    4.532259   4.714619   0.000000
    14  F    3.151203   3.216950   2.233289   0.000000
    15  F    3.628452   4.709033   4.465139   4.890991   0.000000
    16  F    3.699046   5.024405   2.982034   3.725622   2.227353
    17  F    5.998850   4.559816   5.609915   5.869187   5.433364
    18  F    4.930582   3.033709   5.975816   5.363342   5.679107
    19  F    5.001940   4.948723   6.153143   6.435601   2.927388
    20  F    3.288606   3.535051   6.077506   5.599098   2.935489
                   16         17         18         19         20
    16  F    0.000000
    17  F    6.371720   0.000000
    18  F    6.612859   2.242740   0.000000
    19  F    4.948558   3.841297   4.313551   0.000000
    20  F    4.723519   4.707033   4.047973   2.248861   0.000000
                           Interatomic angles:
       B1-B2-B3=122.0821       B1-B2-B4= 68.6237       B1-B4-B3= 87.697 
       B3-B2-B4= 87.6472       B1-B2-B5= 75.2105       B1-B5-B3= 78.0605
       B3-B2-B5= 97.9328       B4-B1-B5=107.2334       B4-B2-B5=140.118 
       B4-B3-B5= 81.1102       B1-B2-B6=125.0962       B3-B2-B6=112.6623
       B1-B4-B6= 76.3163       B4-B2-B6=111.8875       B3-B4-B6= 65.5845
       B1-B5-B6= 77.1486       B5-B2-B6=102.2646       B3-B5-B6= 64.8861
       B4-B6-B5= 72.5112       B2-B1-B7= 94.6275       B1-B4-B7= 88.4704
       B2-B4-B7=136.7871       B3-B4-B7=118.4544       B5-B1-B7=135.2699
       B6-B4-B7=164.2834       B1-B2-B8= 99.6708       B3-B2-B8= 84.0701
       B1-B4-B8=150.3127       B2-B4-B8=109.4238       B3-B4-B8= 98.4323
       B5-B2-B8=174.8225       B6-B2-B8= 81.2369       B6-B4-B8= 79.8869
       B1-B7-B8= 81.2916       B2-B8-B7= 68.9831       B7-B4-B8=113.1639
       B2-B1-F9=118.7357       B3-B2-F9=146.9779       B4-B1-F9=109.2028
       B4-B2-F9= 72.8322       B3-B4-F9=110.7101       B5-B1-F9=116.0926
       B5-B2-F9= 82.0377       B3-B5-F9= 96.7251       B4-F9-B5= 71.4178
       B6-B2-F9= 99.4317       B6-B4-F9= 74.532        B6-B5-F9= 72.5645
       B7-B1-F9=106.319        B7-B4-F9= 90.1548       B8-B2-F9= 93.6714
       B8-B4-F9=127.6972      B2-B1-F10=122.8785      B3-B2-F10= 99.6305
      B4-B1-F10=113.4832      B4-B2-F10= 73.7115      B3-B4-F10= 83.1168
      B5-B1-F10= 92.4331      B2-B5-F10= 74.2397      B3-B5-F10= 82.6139
      B4-F10-B5= 76.4867      B6-B2-F10=147.2079      B6-B4-F10= 97.6861
      B6-B5-F10=106.7081      B7-B1-F10= 79.8508      B2-F10-B7= 73.6101
      B4-B7-F10= 74.4062      B5-F10-B7=112.6636      B8-B2-F10=108.5864
      B8-B4-F10=176.1962      B8-B7-F10=107.6599      F9-B1-F10=117.28  
      B2-F9-F10= 66.5944      B4-F9-F10= 67.5224      B5-F10-F9= 75.6178
      B7-F10-F9= 80.4564      B1-B2-F11=146.9604      B2-B3-F11=117.9902
      B4-B2-F11=104.3701      B4-B3-F11=137.7223      B5-B2-F11= 96.6973
      B5-B3-F11=110.0018      B6-B2-F11= 87.8087      B6-B3-F11= 86.0169
      B8-B2-F11= 87.1969      F9-B2-F11=172.7568     F10-B2-F11=123.0772
      B1-B2-F12= 99.188       B2-B3-F12=124.6357      B1-B4-F12= 91.8974
      B4-B2-F12= 73.3067      B4-B3-F12= 91.2004      B5-B2-F12= 97.0643
      B5-B3-F12=114.9075      B6-B2-F12=134.7755      B6-B3-F12=155.3162
      B6-B4-F12= 93.5604      B7-B4-F12= 90.826       B8-B2-F12= 82.8699
      B8-B4-F12=107.1512      F9-B2-F12=123.6685      F9-B4-F12=119.1305
     F10-B2-F12= 78.0077     F10-B4-F12= 75.8284     B2-F11-F12= 67.3885
     F11-B3-F12=117.3573     B4-F12-F11= 87.9443      B2-B1-F13= 74.1644
      B3-B2-F13=120.8195      B4-B1-F13=129.6123      B4-B2-F13=136.2002
      B1-B5-F13= 96.3066      B2-B5-F13=124.0648      B3-B5-F13=163.1537
      B6-B2-F13= 88.4953      B6-B5-F13= 98.4705      B7-B1-F13=164.6907
      B8-B2-F13=155.1077      F9-B1-F13= 88.4223      F9-B2-F13= 65.592 
      B4-F9-F13= 96.0675      B5-F13-F9= 79.8326     F10-B1-F13= 97.2835
     F10-B2-F13= 69.4254     F10-B5-F13=100.8232     F10-F9-F13= 72.4302
     F11-B2-F13=115.1604     F12-B2-F13=119.5678      B1-B2-F14= 89.8775
      B3-B2-F14= 71.9829      B4-B2-F14=136.469       B4-B3-F14=106.4022
      B1-B5-F14=131.3018      B2-B5-F14=117.45        B3-B5-F14= 76.7856
      B6-B2-F14=111.4279      B6-B3-F14= 81.593       B6-B5-F14=125.8699
      B8-B2-F14=155.6959      F9-B2-F14=104.0576      F9-B5-F14=151.7647
     F10-B2-F14= 72.4747     F10-B5-F14=104.4793     F11-B2-F14= 73.166 
     F11-B3-F14= 98.066      F12-B2-F14= 73.52       F12-B3-F14=101.4454
     B1-F13-F14= 80.8238     B2-F14-F13= 67.4132     B3-F14-F13=105.6878
     F13-B5-F14=117.6137     F9-F13-F14=107.5951      B1-B2-F15=124.065 
      B3-B2-F15=105.803       B4-B2-F15= 87.7302      B5-B2-F15=127.4956
      B2-B6-F15=120.8897      B3-B6-F15=109.4385      B4-B6-F15= 87.9349
      B5-B6-F15=160.3869      B2-F15-B8= 65.389       B4-B8-F15= 90.9313
      B6-F15-B8= 99.2224      B7-B8-F15=122.9554      F9-B2-F15= 99.8869
     F10-B2-F15=147.7733     F11-B2-F15= 86.5654     F12-B2-F15=122.1713
     F13-B2-F15=111.8614     F14-B2-F15=134.2384      B1-B2-F16=120.2793
      B3-B2-F16=113.8808      B4-B2-F16=134.8962      B1-B5-F16= 98.6747
      B5-B2-F16= 78.3346      B3-B5-F16= 84.5764      B2-B6-F16=123.5509
      B3-B6-F16=121.5868      B4-B6-F16=155.5524      B5-B6-F16= 84.0957
      B8-B2-F16=105.2785      F9-B2-F16= 98.539       F9-B5-F16= 86.6367
     F10-B2-F16=134.163      F10-B5-F16=129.6601     F11-B2-F16= 88.1491
     F12-B2-F16=136.7504     B1-F13-F16= 86.7668     F13-B2-F16= 66.8173
     F13-B5-F16= 80.5708     B6-F16-F13= 86.934      F9-F13-F16= 86.3292
     F14-B2-F16= 88.607      F14-B5-F16=119.4423    F14-F13-F16= 90.0006
     B2-F15-F16= 65.9351     B5-F16-F15=101.5843     F15-B6-F16=115.4957
     B8-F15-F16=131.3211    F13-F16-F15=117.2568      B2-B1-F17=116.153 
      B1-B4-F17= 79.4843      B2-B4-F17=135.015       B3-B4-F17=139.9676
      B5-B1-F17=160.4665      B6-B4-F17=143.6713      B1-B7-F17= 95.3319
      B4-B7-F17=121.3887      B8-B4-F17=111.3949      B8-B7-F17=116.411 
      F9-B1-F17= 83.1823      F9-B4-F17= 71.5387     F10-B1-F17= 80.4305
     F10-B4-F17= 68.8802     F10-B7-F17= 94.1719     F12-B4-F17=114.0429
     F13-B1-F17=169.0158      B1-B4-F18=100.0467      B2-B4-F18=129.7432
      B3-B4-F18= 96.17        B6-B4-F18=161.3294      B1-B7-F18=129.023 
      B4-B7-F18=119.9988      B8-B4-F18=108.047       B8-B7-F18=111.2744
      F9-B4-F18=110.6746     F10-B4-F18= 75.1491     F10-B7-F18=106.355 
     F12-B4-F18= 68.0858     B1-F17-F18= 83.9334     B4-F18-F17= 65.3751
     F17-B7-F18=118.393       B1-B4-F19=133.8181      B2-B4-F19=118.5516
      B3-B4-F19=122.0607      B6-B4-F19= 84.8661      B7-B4-F19=103.4004
      B2-B8-F19=130.192       B4-B8-F19=121.5017      B7-B8-F19=106.459 
      F9-B4-F19=107.0886     F10-B4-F19=152.4883     F12-B4-F19=131.531 
     B2-F15-F19= 85.7387     B4-F19-F15= 67.9083     B6-F15-F19=117.6683
     F15-B8-F19= 91.8437    F16-F15-F19=147.1675     F17-B4-F19= 92.8984
     F18-B4-F19=109.5685      B1-B4-F20=154.163       B2-B4-F20= 98.9499
      B3-B4-F20= 74.7669      B6-B4-F20= 79.1631      B7-B4-F20=116.4395
      B2-B8-F20=103.0012      B4-B8-F20=119.7631      B7-B8-F20=121.5368
      F9-B4-F20=147.091      F10-B4-F20=156.9614     F12-B4-F20= 81.566 
     B2-F15-F20= 74.0496     B4-F20-F15= 67.9989     B6-F15-F20=104.726 
     F15-B8-F20= 92.1139    F16-F15-F20=131.9022     F17-B4-F20=126.0152
     F18-B4-F20=100.5735     B4-F20-F19= 65.1672     F19-B8-F20=118.4961
    F15-F19-F20= 67.6353
 Stoichiometry    B8F12
 Framework group  C1[X(B8F12)]
 Deg. of freedom   54
 Full point group                 C1      NOp   1
 Largest Abelian subgroup         C1      NOp   1
 Largest concise Abelian subgroup C1      NOp   1
                         Standard orientation:                         
 ---------------------------------------------------------------------
 Center     Atomic     Atomic              Coordinates (Angstroms)
 Number     Number      Type              X           Y           Z
 ---------------------------------------------------------------------
    1          5             0        0.155543   -1.356544   -0.806244
    2          5             0        0.694371    0.102634   -0.020205
    3          5             0        0.492562    0.361875    1.704636
    4          5             0       -1.047818    0.051649   -0.143362
    5          5             0        2.092027   -0.999072    0.058631
    6          5             0        1.355672    1.476130   -0.825474
    7          5             0       -2.286392   -1.142986    0.009149
    8          5             0       -1.661497    1.653955   -0.231519
    9          9             0        0.105372   -1.385311   -2.116525
   10          9             0        0.020571   -2.512154   -0.166567
   11          9             0        1.152930    1.344439    2.258700
   12          9             0       -0.253113   -0.378575    2.486506
   13          9             0        2.783919   -1.375508   -0.979067
   14          9             0        2.573752   -1.278161    1.242179
   15          9             0        0.596759    2.514327   -1.130652
   16          9             0        2.627275    1.598867   -1.124275
   17          9             0       -2.815491   -1.712966   -1.041318
   18          9             0       -2.787459   -1.416687    1.181590
   19          9             0       -2.294615    2.084788   -1.288937
   20          9             0       -1.595715    2.434918    0.819693
 ---------------------------------------------------------------------
 Rotational constants (GHZ):      0.3731676      0.3166912      0.2687490
 Isotopes: B-11,B-11,B-11,B-11,B-11,B-11,B-11,B-11,F-19,F-19,F-19,F-19,F-19,F-19,
 F-19,F-19,F-19,F-19,F-19,F-19
 Standard basis: 6-31G(d) (6D, 7F)
 There are   300 symmetry adapted basis functions of A   symmetry.
 Crude estimate of integral set expansion from redundant integrals=1.000.
 Integral buffers will be    131072 words long.
 Raffenetti 1 integral format.
 Two-electron integral symmetry is turned on.
   300 basis functions      560 primitive gaussians
    74 alpha electrons       74 beta electrons
       nuclear repulsion energy      1649.6441814599 Hartrees.
 One-electron integrals computed using PRISM.
 NBasis=   300 RedAO= T  NBF=   300
 NBsUse=   300 1.00D-04 NBFU=   300
 Initial guess read from the checkpoint file:
 b8f12/b8f12_2.chk
 Requested convergence on RMS density matrix=1.00D-08 within  64 cycles.
 Requested convergence on MAX density matrix=1.00D-06.
 SCF Done:  E(RHF) =  -1391.43182810     A.U. after    1 cycles
             Convg  =    0.9930D-09             -V/T =  2.0019
             S**2   =   0.0000
 Range of M.O.s used for correlation:     1   300
 NBasis=   300 NAE=    74 NBE=    74 NFC=     0 NFV=     0
 NROrb=    300 NOA=    74 NOB=    74 NVA=   226 NVB=   226

 **** Warning!!: The largest alpha MO coefficient is  0.11104914D+02

          Differentiating once with respect to electric field.
                with respect to dipole field.
 Integrals replicated using symmetry in FoFDir.
 MinBra= 0 MaxBra= 2 Meth= 1.
 IRaf=       0 NMat=   3 IRICut=       1 DoRegI=T DoRafI=F ISym2E= 2 JSym2E=2.
          There are   3 degrees of freedom in the 1st order CPHF.
   3 vectors were produced by pass  0.
 AX will form   3 AO Fock derivatives at one time.
   3 vectors were produced by pass  1.
   3 vectors were produced by pass  2.
   3 vectors were produced by pass  3.
   3 vectors were produced by pass  4.
   3 vectors were produced by pass  5.
   3 vectors were produced by pass  6.
   3 vectors were produced by pass  7.
   3 vectors were produced by pass  8.
   3 vectors were produced by pass  9.
   3 vectors were produced by pass 10.
   3 vectors were produced by pass 11.
   3 vectors were produced by pass 12.
   1 vectors were produced by pass 13.
 Inv2:  IOpt= 1 Iter= 1 AM= 8.71D-16 Conv= 1.00D-12.
 Inverted reduced A of dimension  40 with in-core refinement.
 G2DrvN: will do   20 atoms at a time, making    1 passes doing MaxLOS=2.
 FoFDir used for L=0 through L=2.
          Differentiating once with respect to electric field.
                with respect to dipole field.
          Differentiating once with respect to nuclear coordinates.
 Integrals replicated using symmetry in FoFDir.
 MinBra= 0 MaxBra= 2 Meth= 1.
 IRaf=       0 NMat=  63 IRICut=      63 DoRegI=T DoRafI=T ISym2E= 2 JSym2E=2.
          There are  63 degrees of freedom in the 1st order CPHF.
  60 vectors were produced by pass  0.
 AX will form  60 AO Fock derivatives at one time.
  60 vectors were produced by pass  1.
  60 vectors were produced by pass  2.
  60 vectors were produced by pass  3.
  60 vectors were produced by pass  4.
  60 vectors were produced by pass  5.
  60 vectors were produced by pass  6.
  31 vectors were produced by pass  7.
   3 vectors were produced by pass  8.
 Inv2:  IOpt= 1 Iter= 1 AM= 4.18D-15 Conv= 1.00D-12.
 Inverted reduced A of dimension 454 with in-core refinement.

 **********************************************************************

            Population analysis using the SCF density.

 **********************************************************************

 Alpha  occ. eigenvalues --  -26.36552 -26.36300 -26.36250 -26.35713 -26.35152
 Alpha  occ. eigenvalues --  -26.35029 -26.34921 -26.34799 -26.34697 -26.34579
 Alpha  occ. eigenvalues --  -26.34404 -26.33970  -7.78573  -7.77974  -7.75513
 Alpha  occ. eigenvalues --   -7.74835  -7.74284  -7.73290  -7.67670  -7.59527
 Alpha  occ. eigenvalues --   -1.69304  -1.68625  -1.67678  -1.67579  -1.67207
 Alpha  occ. eigenvalues --   -1.66792  -1.65887  -1.65421  -1.64432  -1.64315
 Alpha  occ. eigenvalues --   -1.63981  -1.63404  -0.94189  -0.86737  -0.85720
 Alpha  occ. eigenvalues --   -0.85287  -0.84583  -0.84424  -0.83086  -0.81309
 Alpha  occ. eigenvalues --   -0.80702  -0.80002  -0.79091  -0.78989  -0.78538
 Alpha  occ. eigenvalues --   -0.78129  -0.77500  -0.77166  -0.76057  -0.75693
 Alpha  occ. eigenvalues --   -0.74661  -0.74341  -0.73780  -0.73182  -0.72996
 Alpha  occ. eigenvalues --   -0.72819  -0.70229  -0.70002  -0.69351  -0.68861
 Alpha  occ. eigenvalues --   -0.68483  -0.68398  -0.68278  -0.68130  -0.67793
 Alpha  occ. eigenvalues --   -0.67439  -0.67218  -0.67101  -0.66675  -0.62409
 Alpha  occ. eigenvalues --   -0.54750  -0.49697  -0.47522  -0.45110
 Alpha virt. eigenvalues --    0.00704   0.08042   0.10688   0.12865   0.15972
 Alpha virt. eigenvalues --    0.19095   0.23105   0.24750   0.25037   0.26626
 Alpha virt. eigenvalues --    0.28744   0.31408   0.32964   0.34509   0.35397
 Alpha virt. eigenvalues --    0.38380   0.40197   0.40637   0.43148   0.43811
 Alpha virt. eigenvalues --    0.45469   0.46233   0.47509   0.48769   0.49537
 Alpha virt. eigenvalues --    0.54366   0.59330   0.61585   0.62281   0.64261
 Alpha virt. eigenvalues --    0.66516   0.68423   0.68706   0.70245   0.71601
 Alpha virt. eigenvalues --    0.72894   0.73396   0.73513   0.75401   0.76898
 Alpha virt. eigenvalues --    0.77990   0.78402   0.78592   0.79526   0.80955
 Alpha virt. eigenvalues --    0.81452   0.82393   0.84014   0.86847   0.90870
 Alpha virt. eigenvalues --    0.94942   0.97072   1.00021   1.03856   1.05466
 Alpha virt. eigenvalues --    1.06480   1.14914   1.19521   1.24886   1.27831
 Alpha virt. eigenvalues --    1.30237   1.31212   1.32793   1.33554   1.34812
 Alpha virt. eigenvalues --    1.35828   1.37490   1.38540   1.39183   1.40252
 Alpha virt. eigenvalues --    1.41448   1.42068   1.43155   1.44056   1.46408
 Alpha virt. eigenvalues --    1.47404   1.47488   1.48453   1.50583   1.52191
 Alpha virt. eigenvalues --    1.53120   1.53823   1.54423   1.54600   1.55948
 Alpha virt. eigenvalues --    1.56562   1.56969   1.57456   1.58417   1.59357
 Alpha virt. eigenvalues --    1.59716   1.60547   1.61382   1.62396   1.63487
 Alpha virt. eigenvalues --    1.63623   1.64450   1.64976   1.66610   1.68154
 Alpha virt. eigenvalues --    1.68672   1.72218   1.72601   1.73030   1.76382
 Alpha virt. eigenvalues --    1.77716   1.79071   1.79336   1.81088   1.83966
 Alpha virt. eigenvalues --    1.85472   1.86418   1.88588   1.89523   1.91339
 Alpha virt. eigenvalues --    1.92695   1.93524   1.94805   1.95414   1.95505
 Alpha virt. eigenvalues --    1.97195   1.97824   1.99320   1.99949   2.00252
 Alpha virt. eigenvalues --    2.02359   2.02943   2.03807   2.04298   2.04652
 Alpha virt. eigenvalues --    2.05780   2.07351   2.08177   2.08983   2.09407
 Alpha virt. eigenvalues --    2.09831   2.10646   2.11809   2.12756   2.13420
 Alpha virt. eigenvalues --    2.14851   2.16620   2.16944   2.17615   2.18360
 Alpha virt. eigenvalues --    2.20667   2.20927   2.22223   2.22455   2.22746
 Alpha virt. eigenvalues --    2.23330   2.24053   2.24335   2.25037   2.26255
 Alpha virt. eigenvalues --    2.26719   2.28400   2.29366   2.30422   2.32978
 Alpha virt. eigenvalues --    2.34903   2.36261   2.40103   2.40971   2.46583
 Alpha virt. eigenvalues --    2.48196   2.52136   2.53401   2.55641   2.56852
 Alpha virt. eigenvalues --    2.60129   2.62583   2.64496   2.65759   2.67364
 Alpha virt. eigenvalues --    2.69705   2.70196   2.71446   2.72965   2.73542
 Alpha virt. eigenvalues --    2.75303   2.76129   2.77017   2.78767   2.79634
 Alpha virt. eigenvalues --    2.82139   2.84847   2.85753   3.13855   3.14244
 Alpha virt. eigenvalues --    3.17060   3.18660   3.20875   3.21439   3.39417
 Alpha virt. eigenvalues --    3.41546   3.42114   3.42974   3.44168   3.44325
 Alpha virt. eigenvalues --    3.61767   3.63508   3.64515   3.65117   3.66601
 Alpha virt. eigenvalues --    3.68449   3.78569   3.84010   3.88385   3.90473
 Alpha virt. eigenvalues --    3.93313   3.97676   4.13271   4.23466   4.86981
 Alpha virt. eigenvalues --    4.91835   5.04268   5.18520   5.34956   5.41854
 Alpha virt. eigenvalues --    5.63485   5.66912   5.82348   5.89161   6.07283
 Alpha virt. eigenvalues --    6.45322
          Condensed to atoms (all electrons):
              1          2          3          4          5          6
  1  B    2.999504   0.209026  -0.008365   0.117514   0.054200  -0.002325
  2  B    0.209026   5.047537   0.282783   0.183911   0.268384   0.320709
  3  B   -0.008365   0.282783   3.031371   0.014766   0.000701   0.008048
  4  B    0.117514   0.183911   0.014766   4.691104  -0.041887   0.000404
  5  B    0.054200   0.268384   0.000701  -0.041887   3.075878   0.001247
  6  B   -0.002325   0.320709   0.008048   0.000404   0.001247   3.021574
  7  B    0.009351  -0.020739  -0.000740   0.320349  -0.000459   0.000654
  8  B   -0.003571   0.012720   0.000833   0.320201   0.000536  -0.002127
  9  F    0.398897  -0.031972   0.000487  -0.004591  -0.003125   0.003344
 10  F    0.341446  -0.033027   0.002521  -0.026524   0.017456   0.000311
 11  F    0.000391  -0.047778   0.403966  -0.002377  -0.000035   0.009990
 12  F    0.001691  -0.049052   0.392919   0.008710   0.000587   0.000274
 13  F    0.015832  -0.041593   0.000091   0.001331   0.386671   0.004950
 14  F   -0.000301  -0.052708   0.023671   0.000910   0.391892  -0.000827
 15  F    0.000124  -0.047797   0.000371  -0.004989   0.000193   0.375025
 16  F   -0.000496  -0.052304  -0.000321  -0.000044   0.016881   0.402500
 17  F    0.014192   0.001025   0.000017  -0.044760   0.000049   0.000006
 18  F   -0.000750  -0.000221   0.000797  -0.037656  -0.000019   0.000003
 19  F   -0.000444  -0.001490   0.000085  -0.038942  -0.000009   0.000593
 20  F    0.000107  -0.000584   0.013881  -0.048035   0.000032  -0.000218
              7          8          9         10         11         12
  1  B    0.009351  -0.003571   0.398897   0.341446   0.000391   0.001691
  2  B   -0.020739   0.012720  -0.031972  -0.033027  -0.047778  -0.049052
  3  B   -0.000740   0.000833   0.000487   0.002521   0.403966   0.392919
  4  B    0.320349   0.320201  -0.004591  -0.026524  -0.002377   0.008710
  5  B   -0.000459   0.000536  -0.003125   0.017456  -0.000035   0.000587
  6  B    0.000654  -0.002127   0.003344   0.000311   0.009990   0.000274
  7  B    3.027160   0.012905  -0.000999   0.024928   0.000038   0.002106
  8  B    0.012905   2.983969  -0.000979   0.000168   0.000901  -0.001432
  9  F   -0.000999  -0.000979   8.960845  -0.017843   0.000000   0.000000
 10  F    0.024928   0.000168  -0.017843   9.040588   0.000000  -0.000117
 11  F    0.000038   0.000901   0.000000   0.000000   8.953683  -0.020755
 12  F    0.002106  -0.001432   0.000000  -0.000117  -0.020755   8.967135
 13  F    0.000010   0.000011  -0.000373  -0.000557   0.000000   0.000000
 14  F   -0.000022   0.000003   0.000004  -0.000351  -0.000415  -0.000316
 15  F    0.000098   0.026982  -0.000001   0.000000  -0.000053   0.000000
 16  F   -0.000003   0.000000  -0.000001   0.000000  -0.000024   0.000000
 17  F    0.388077  -0.000642  -0.000264  -0.000735   0.000000   0.000000
 18  F    0.409462  -0.001333   0.000001  -0.000213   0.000000   0.000000
 19  F    0.000642   0.407118   0.000000   0.000000   0.000000   0.000000
 20  F   -0.000425   0.392236   0.000000   0.000000  -0.000297  -0.000089
             13         14         15         16         17         18
  1  B    0.015832  -0.000301   0.000124  -0.000496   0.014192  -0.000750
  2  B   -0.041593  -0.052708  -0.047797  -0.052304   0.001025  -0.000221
  3  B    0.000091   0.023671   0.000371  -0.000321   0.000017   0.000797
  4  B    0.001331   0.000910  -0.004989  -0.000044  -0.044760  -0.037656
  5  B    0.386671   0.391892   0.000193   0.016881   0.000049  -0.000019
  6  B    0.004950  -0.000827   0.375025   0.402500   0.000006   0.000003
  7  B    0.000010  -0.000022   0.000098  -0.000003   0.388077   0.409462
  8  B    0.000011   0.000003   0.026982   0.000000  -0.000642  -0.001333
  9  F   -0.000373   0.000004  -0.000001  -0.000001  -0.000264   0.000001
 10  F   -0.000557  -0.000351   0.000000   0.000000  -0.000735  -0.000213
 11  F    0.000000  -0.000415  -0.000053  -0.000024   0.000000   0.000000
 12  F    0.000000  -0.000316   0.000000   0.000000   0.000000   0.000000
 13  F    8.945891  -0.019786   0.000000  -0.000694   0.000000   0.000000
 14  F   -0.019786   8.952660   0.000000  -0.000027   0.000000   0.000000
 15  F    0.000000   0.000000   9.003991  -0.022282   0.000000   0.000000
 16  F   -0.000694  -0.000027  -0.022282   8.967656   0.000000   0.000000
 17  F    0.000000   0.000000   0.000000   0.000000   8.967203  -0.019969
 18  F    0.000000   0.000000   0.000000   0.000000  -0.019969   8.942504
 19  F    0.000000   0.000000  -0.000881   0.000000  -0.000009   0.000001
 20  F    0.000000   0.000000  -0.000995   0.000000   0.000000   0.000000
             19         20
  1  B   -0.000444   0.000107
  2  B   -0.001490  -0.000584
  3  B    0.000085   0.013881
  4  B   -0.038942  -0.048035
  5  B   -0.000009   0.000032
  6  B    0.000593  -0.000218
  7  B    0.000642  -0.000425
  8  B    0.407118   0.392236
  9  F    0.000000   0.000000
 10  F    0.000000   0.000000
 11  F    0.000000  -0.000297
 12  F    0.000000  -0.000089
 13  F    0.000000   0.000000
 14  F    0.000000   0.000000
 15  F   -0.000881  -0.000995
 16  F    0.000000   0.000000
 17  F   -0.000009   0.000000
 18  F    0.000001   0.000000
 19  F    8.957076  -0.019099
 20  F   -0.019099   8.980532
 Total atomic charges:
              1
  1  B    0.853976
  2  B   -0.946830
  3  B    0.832118
  4  B   -0.409396
  5  B    0.830827
  6  B    0.855865
  7  B    0.827606
  8  B    0.851499
  9  F   -0.303432
 10  F   -0.348053
 11  F   -0.297235
 12  F   -0.301662
 13  F   -0.291784
 14  F   -0.294387
 15  F   -0.329786
 16  F   -0.310840
 17  F   -0.304191
 18  F   -0.292608
 19  F   -0.304641
 20  F   -0.317047
 Sum of Mulliken charges=   0.00000
 Atomic charges with hydrogens summed into heavy atoms:
              1
  1  B    0.853976
  2  B   -0.946830
  3  B    0.832118
  4  B   -0.409396
  5  B    0.830827
  6  B    0.855865
  7  B    0.827606
  8  B    0.851499
  9  F   -0.303432
 10  F   -0.348053
 11  F   -0.297235
 12  F   -0.301662
 13  F   -0.291784
 14  F   -0.294387
 15  F   -0.329786
 16  F   -0.310840
 17  F   -0.304191
 18  F   -0.292608
 19  F   -0.304641
 20  F   -0.317047
 Sum of Mulliken charges=   0.00000
 Electronic spatial extent (au):  <R**2>=  4308.9253
 Charge=     0.0000 electrons
 Dipole moment (Debye):
    X=    -0.2618    Y=    -0.4059    Z=    -0.0746  Tot=     0.4887
 Quadrupole moment (Debye-Ang):
   XX=  -107.3324   YY=  -112.1252   ZZ=  -111.0365
   XY=    -1.7508   XZ=     0.5610   YZ=     0.2713
 Octapole moment (Debye-Ang**2):
  XXX=    -9.9316  YYY=   -13.5451  ZZZ=    -4.8185  XYY=     9.0167
  XXY=     4.6533  XXZ=     8.4036  XZZ=     3.8502  YZZ=     1.4577
  YYZ=     5.5176  XYZ=    -1.6229
 Hexadecapole moment (Debye-Ang**3):
 XXXX= -1981.7733 YYYY= -1513.4313 ZZZZ=  -985.3575 XXXY=   -21.7802
 XXXZ=     6.7404 YYYX=     8.7635 YYYZ=     4.2160 ZZZX=    -7.1080
 ZZZY=   -11.8200 XXYY=  -610.9651 XXZZ=  -519.1915 YYZZ=  -431.5964
 XXYZ=    12.8055 YYXZ=    -3.4302 ZZXY=    -3.9330
 N-N= 1.649644181460D+03 E-N=-6.613838146096D+03  KE= 1.388787776516D+03
  Exact polarizability:  89.024  -0.800  77.025   0.892   1.341  72.209
 Approx polarizability:  80.712  -0.717  72.063   1.442   1.704  72.725
 Full mass-weighted force constant matrix:
 Low frequencies ---   -0.6326   -0.0011    0.0004    0.0007    0.2292    0.3383
 Low frequencies ---   21.3690   27.1617   29.1270
 Harmonic frequencies (cm**-1), IR intensities (KM/Mole),
 Raman scattering activities (A**4/AMU), Raman depolarization ratios,
 reduced masses (AMU), force constants (mDyne/A) and normal coordinates:
                     1                      2                      3
                    ?A                     ?A                     ?A
 Frequencies --    21.3690                27.1617                29.1270
 Red. masses --    18.5792                18.3288                17.8628
 Frc consts  --     0.0050                 0.0080                 0.0089
 IR Inten    --     0.4095                 0.1417                 0.6250
 Raman Activ --     0.0893                 0.0619                 0.0556
 Depolar     --     0.7275                 0.7416                 0.6332
 Atom AN      X      Y      Z        X      Y      Z        X      Y      Z
   1   5     0.00   0.00  -0.08     0.06   0.02  -0.05    -0.01  -0.08   0.21
   2   5     0.01  -0.03  -0.03     0.03   0.01  -0.02    -0.01   0.01   0.05
   3   5    -0.06  -0.08  -0.01     0.01   0.12  -0.04     0.03   0.04   0.04
   4   5     0.03   0.04   0.02     0.02   0.00   0.03    -0.01  -0.03  -0.08
   5   5     0.00   0.00   0.01    -0.03  -0.06   0.14     0.05   0.05  -0.12
   6   5     0.03   0.01   0.05    -0.03  -0.03  -0.12    -0.01  -0.01   0.03
   7   5     0.03   0.05   0.12     0.05  -0.04  -0.04    -0.06   0.00  -0.22
   8   5     0.00   0.03  -0.09    -0.01  -0.01   0.11     0.00  -0.03   0.04
   9   9    -0.01   0.03  -0.07     0.09   0.07  -0.05     0.00  -0.26   0.21
  10   9    -0.02  -0.01  -0.10     0.03  -0.01  -0.10    -0.02   0.01   0.37
  11   9    -0.34   0.13  -0.05     0.13   0.07  -0.08     0.09  -0.02   0.07
  12   9     0.24  -0.34   0.02    -0.12   0.28  -0.01    -0.06   0.10   0.02
  13   9    -0.06  -0.13   0.01     0.14   0.03   0.22    -0.11  -0.08  -0.18
  14   9     0.07   0.13   0.01    -0.27  -0.23   0.19     0.28   0.29  -0.16
  15   9     0.12   0.17   0.42    -0.02   0.09   0.23     0.03   0.09   0.25
  16   9    -0.02  -0.13  -0.24    -0.13  -0.16  -0.57    -0.05  -0.10  -0.19
  17   9     0.00  -0.01   0.17     0.05   0.05  -0.08    -0.01   0.06  -0.28
  18   9     0.06   0.13   0.15     0.09  -0.17  -0.05    -0.14  -0.01  -0.26
  19   9     0.24   0.02  -0.25     0.01   0.05   0.12     0.08   0.08   0.04
  20   9    -0.31   0.00  -0.06    -0.06  -0.08   0.17    -0.07  -0.14   0.13
                     4                      5                      6
                    ?A                     ?A                     ?A
 Frequencies --    49.6281                52.6946                59.0530
 Red. masses --    18.7694                18.4253                18.5544
 Frc consts  --     0.0272                 0.0301                 0.0381
 IR Inten    --     0.1233                 0.0247                 0.0758
 Raman Activ --     0.0721                 0.0366                 0.0895
 Depolar     --     0.7449                 0.6882                 0.6299
 Atom AN      X      Y      Z        X      Y      Z        X      Y      Z
   1   5    -0.04   0.03  -0.02     0.03  -0.01  -0.04    -0.01  -0.06   0.15
   2   5    -0.02   0.00   0.03     0.00  -0.02  -0.01     0.02   0.01   0.01
   3   5    -0.03   0.08   0.01    -0.04   0.02  -0.02     0.10  -0.02   0.02
   4   5    -0.02  -0.01   0.03     0.01   0.02   0.00     0.02   0.02   0.00
   5   5    -0.03  -0.02   0.01     0.00   0.01   0.11     0.01  -0.02  -0.03
   6   5     0.04  -0.01   0.06    -0.01  -0.07  -0.11    -0.03   0.01  -0.03
   7   5     0.03  -0.07   0.02    -0.01   0.02  -0.10    -0.03   0.07  -0.07
   8   5    -0.03  -0.02  -0.03     0.03   0.04   0.16     0.01   0.01  -0.04
   9   9    -0.05   0.10  -0.02     0.09   0.01  -0.04    -0.02  -0.21   0.15
  10   9    -0.05   0.00  -0.08    -0.03  -0.01  -0.05    -0.04   0.01   0.27
  11   9     0.02   0.09  -0.05    -0.37   0.27  -0.08    -0.10   0.14  -0.02
  12   9    -0.07   0.18   0.06     0.26  -0.24   0.02     0.35  -0.21   0.07
  13   9    -0.16  -0.24   0.00    -0.04  -0.22   0.16     0.19   0.35  -0.04
  14   9     0.10   0.19   0.00     0.04   0.24   0.15    -0.18  -0.38  -0.03
  15   9     0.10   0.00   0.01    -0.02  -0.12  -0.27    -0.09  -0.04  -0.06
  16   9     0.08  -0.05   0.16    -0.01  -0.09  -0.10    -0.03   0.10   0.00
  17   9    -0.29   0.35  -0.05     0.02   0.10  -0.15    -0.20   0.35  -0.13
  18   9     0.42  -0.56   0.07    -0.05  -0.05  -0.13     0.10  -0.13  -0.07
  19   9     0.04  -0.06  -0.09    -0.18   0.12   0.32     0.07  -0.04  -0.09
  20   9    -0.08   0.02  -0.06     0.26  -0.02   0.19    -0.08   0.03  -0.05
                     7                      8                      9
                    ?A                     ?A                     ?A
 Frequencies --    72.7537                80.5509                92.8536
 Red. masses --    18.0290                17.7468                18.5310
 Frc consts  --     0.0562                 0.0678                 0.0941
 IR Inten    --     0.9453                 1.1100                 0.2863
 Raman Activ --     0.0756                 0.0488                 0.0582
 Depolar     --     0.7367                 0.6721                 0.7053
 Atom AN      X      Y      Z        X      Y      Z        X      Y      Z
   1   5     0.05   0.03   0.04    -0.02   0.09   0.03    -0.02  -0.01   0.03
   2   5     0.02   0.03   0.07     0.04   0.02   0.13     0.03  -0.01   0.01
   3   5    -0.05  -0.19   0.10     0.23   0.02   0.14    -0.10   0.06   0.00
   4   5     0.02   0.04   0.07     0.03   0.02   0.15     0.05   0.01   0.05
   5   5     0.07   0.11   0.07    -0.01  -0.07   0.08     0.01  -0.06  -0.09
   6   5    -0.06  -0.01  -0.09    -0.03  -0.01   0.04     0.09   0.02   0.12
   7   5    -0.01   0.08   0.07    -0.02   0.04  -0.06     0.07  -0.01   0.01
   8   5     0.06   0.05  -0.07    -0.09  -0.04   0.01     0.00   0.00  -0.01
   9   9     0.07   0.05   0.04    -0.09   0.28   0.03    -0.03  -0.03   0.03
  10   9     0.05   0.03   0.02     0.03   0.00  -0.12    -0.03   0.01   0.05
  11   9     0.01  -0.38   0.35     0.30   0.02   0.07    -0.24   0.17  -0.03
  12   9    -0.20  -0.27  -0.11     0.34   0.01   0.23    -0.09   0.06   0.01
  13   9     0.07   0.09   0.08    -0.12  -0.22   0.06    -0.03   0.04  -0.15
  14   9     0.12   0.19   0.08     0.06  -0.04   0.06     0.03  -0.19  -0.13
  15   9    -0.12  -0.04  -0.08    -0.09  -0.06  -0.01     0.18   0.16   0.35
  16   9    -0.13  -0.05  -0.36    -0.05   0.01  -0.04     0.07  -0.09  -0.01
  17   9    -0.11   0.24   0.03     0.16   0.10  -0.18     0.15  -0.02  -0.03
  18   9     0.05  -0.04   0.07    -0.26   0.03  -0.17     0.02  -0.05  -0.03
  19   9    -0.06  -0.11  -0.07    -0.13  -0.32  -0.09    -0.42  -0.31   0.11
  20   9     0.19   0.22  -0.20    -0.22   0.15  -0.13     0.34   0.27  -0.24
                    10                     11                     12
                    ?A                     ?A                     ?A
 Frequencies --    93.6598               102.7577               104.0563
 Red. masses --    17.5406                17.5102                17.7742
 Frc consts  --     0.0907                 0.1089                 0.1134
 IR Inten    --     1.8341                 0.8808                 1.1043
 Raman Activ --     0.0734                 0.0313                 0.0904
 Depolar     --     0.7355                 0.7445                 0.6793
 Atom AN      X      Y      Z        X      Y      Z        X      Y      Z
   1   5     0.09  -0.14  -0.12     0.00   0.06   0.01     0.08   0.01   0.02
   2   5     0.07  -0.13  -0.10     0.01   0.12  -0.11     0.03  -0.04   0.14
   3   5     0.01  -0.03  -0.12     0.06  -0.05  -0.09    -0.09   0.06   0.12
   4   5     0.10  -0.10  -0.05     0.02   0.10  -0.09     0.03  -0.05   0.11
   5   5     0.12  -0.02   0.04    -0.05   0.04  -0.01     0.10   0.04  -0.05
   6   5    -0.01   0.00   0.06     0.18   0.06  -0.09     0.09  -0.16  -0.03
   7   5    -0.09   0.15   0.01     0.07   0.06  -0.03    -0.06   0.05   0.07
   8   5     0.00  -0.14  -0.01    -0.26   0.00   0.03    -0.06  -0.09   0.10
   9   9     0.16  -0.16  -0.12     0.01  -0.10   0.01     0.13   0.20   0.01
  10   9     0.10  -0.13  -0.11    -0.02   0.13   0.15     0.05  -0.08  -0.15
  11   9     0.08  -0.02  -0.23     0.13  -0.17   0.06    -0.21   0.14   0.12
  12   9    -0.03   0.09  -0.05     0.04  -0.14  -0.20    -0.17   0.13   0.11
  13   9     0.19  -0.09   0.10     0.02  -0.04   0.07     0.07   0.30  -0.18
  14   9     0.10   0.10   0.08    -0.16   0.06   0.05     0.23  -0.10  -0.14
  15   9    -0.10  -0.01   0.23     0.35   0.15  -0.15     0.18  -0.16  -0.22
  16   9    -0.02   0.18   0.10     0.23  -0.13   0.01     0.11  -0.34  -0.06
  17   9    -0.35   0.33   0.04     0.02   0.03   0.01    -0.10   0.15   0.03
  18   9    -0.12   0.31   0.04     0.15   0.09   0.01    -0.16   0.10   0.04
  19   9    -0.19  -0.22   0.07    -0.42  -0.05   0.10     0.03  -0.14   0.04
  20   9     0.00  -0.15   0.01    -0.38  -0.05   0.08    -0.24  -0.10   0.12
                    13                     14                     15
                    ?A                     ?A                     ?A
 Frequencies --   111.4410               129.4383               138.6787
 Red. masses --    17.3687                18.1451                16.4956
 Frc consts  --     0.1271                 0.1791                 0.1869
 IR Inten    --     0.6580                 1.6139                 5.0555
 Raman Activ --     0.0166                 0.1166                 0.4466
 Depolar     --     0.2248                 0.6980                 0.7395
 Atom AN      X      Y      Z        X      Y      Z        X      Y      Z
   1   5     0.00  -0.06  -0.06     0.09   0.01   0.03     0.07   0.11   0.10
   2   5    -0.22  -0.05  -0.01     0.00  -0.02   0.10    -0.03   0.14   0.12
   3   5     0.05  -0.06   0.01     0.00   0.00   0.10     0.06   0.10   0.13
   4   5    -0.22  -0.03  -0.02    -0.02   0.10  -0.14    -0.07  -0.13  -0.28
   5   5    -0.06   0.18   0.02     0.00  -0.11  -0.05    -0.08  -0.03  -0.01
   6   5    -0.04  -0.09   0.05    -0.04  -0.04   0.04    -0.01   0.08   0.03
   7   5    -0.17  -0.09   0.00     0.06   0.05  -0.07    -0.12  -0.08  -0.21
   8   5    -0.07   0.04  -0.05    -0.06   0.10  -0.06    -0.01  -0.13  -0.16
   9   9     0.17  -0.03  -0.06     0.65   0.00   0.01     0.02   0.22   0.08
  10   9    -0.17  -0.06  -0.11    -0.43   0.05   0.00     0.30   0.02   0.00
  11   9     0.24  -0.08  -0.17     0.03   0.00   0.08     0.01   0.08   0.23
  12   9     0.23  -0.03   0.19     0.02   0.03   0.13     0.12  -0.02   0.09
  13   9     0.09   0.38   0.06    -0.10  -0.14  -0.10    -0.11  -0.07  -0.01
  14   9    -0.08   0.28   0.05     0.07  -0.13  -0.09    -0.12  -0.07  -0.01
  15   9     0.16   0.06   0.12    -0.17  -0.13   0.03     0.06   0.12   0.00
  16   9    -0.01  -0.32   0.09    -0.07   0.08  -0.03    -0.01  -0.05  -0.06
  17   9    -0.14  -0.14   0.01    -0.01  -0.09   0.04    -0.42  -0.20   0.02
  18   9    -0.15  -0.15   0.00     0.23   0.11   0.02     0.13   0.17  -0.04
  19   9    -0.06   0.09  -0.03    -0.15   0.11  -0.01    -0.09   0.02  -0.05
  20   9     0.14   0.10  -0.11    -0.11   0.06  -0.03     0.21  -0.26  -0.09
                    16                     17                     18
                    ?A                     ?A                     ?A
 Frequencies --   165.3658               190.7933               222.5449
 Red. masses --    16.7898                17.2285                16.7467
 Frc consts  --     0.2705                 0.3695                 0.4887
 IR Inten    --     1.4338                 0.5154                 0.7989
 Raman Activ --     0.3580                 0.6343                 2.1259
 Depolar     --     0.7287                 0.7347                 0.1573
 Atom AN      X      Y      Z        X      Y      Z        X      Y      Z
   1   5     0.15   0.06   0.00     0.22  -0.09  -0.05     0.06   0.00   0.04
   2   5    -0.06   0.14  -0.09    -0.07  -0.08   0.02     0.11  -0.03   0.01
   3   5     0.01   0.05  -0.06    -0.07  -0.08   0.03     0.19   0.09  -0.07
   4   5    -0.10  -0.08   0.20    -0.06   0.14  -0.03    -0.17   0.03  -0.02
   5   5    -0.11  -0.02  -0.12    -0.04  -0.02   0.04     0.23  -0.13   0.02
   6   5    -0.03   0.16  -0.08    -0.07  -0.11   0.07     0.07  -0.03  -0.04
   7   5    -0.15  -0.07   0.21     0.01   0.10   0.03    -0.22  -0.12  -0.02
   8   5     0.01  -0.06   0.14    -0.12   0.23  -0.09    -0.10   0.17   0.02
   9   9     0.44  -0.07   0.00     0.05  -0.16  -0.03    -0.07   0.06   0.04
  10   9     0.19   0.09   0.08     0.59  -0.10   0.00    -0.03  -0.01  -0.01
  11   9    -0.01   0.01   0.02     0.01  -0.05  -0.11    -0.01   0.12   0.13
  12   9     0.01  -0.03  -0.14    -0.03   0.01   0.14     0.03   0.01  -0.29
  13   9    -0.16  -0.17  -0.09    -0.17  -0.03  -0.05     0.32  -0.14   0.07
  14   9    -0.21  -0.04  -0.09     0.03  -0.12  -0.02     0.28  -0.13   0.01
  15   9     0.09   0.23  -0.10    -0.08  -0.12   0.04     0.02  -0.03   0.07
  16   9     0.01   0.07   0.01    -0.07  -0.14   0.07     0.07   0.09  -0.01
  17   9    -0.04   0.07   0.07     0.08   0.09   0.00    -0.28  -0.23   0.06
  18   9    -0.37  -0.21   0.09     0.03  -0.02   0.01    -0.20  -0.20  -0.02
  19   9     0.18  -0.13   0.01    -0.18   0.38   0.00    -0.09   0.21   0.02
  20   9     0.03   0.08   0.03    -0.14   0.21  -0.06    -0.13   0.26  -0.04
                    19                     20                     21
                    ?A                     ?A                     ?A
 Frequencies --   234.9004               263.5422               278.1438
 Red. masses --    16.7494                17.0676                16.9104
 Frc consts  --     0.5445                 0.6984                 0.7708
 IR Inten    --     0.2520                 0.3301                 3.7710
 Raman Activ --     0.6755                 2.7223                 0.3527
 Depolar     --     0.3986                 0.0235                 0.7434
 Atom AN      X      Y      Z        X      Y      Z        X      Y      Z
   1   5    -0.04  -0.01   0.01    -0.04   0.01  -0.19     0.03   0.05   0.05
   2   5     0.05   0.03   0.01     0.03   0.02  -0.01    -0.04   0.00  -0.03
   3   5    -0.06   0.02   0.05    -0.20  -0.16   0.22     0.03  -0.02   0.08
   4   5     0.00  -0.01  -0.05     0.00   0.00   0.00    -0.01   0.00  -0.05
   5   5     0.06  -0.01   0.09     0.12  -0.02  -0.03     0.09  -0.11  -0.43
   6   5     0.10   0.07  -0.02     0.05   0.22  -0.01    -0.14  -0.04   0.04
   7   5     0.00   0.01   0.28    -0.05  -0.05  -0.08     0.03   0.05   0.09
   8   5    -0.06  -0.08  -0.39    -0.01   0.03   0.08    -0.01   0.00  -0.08
   9   9    -0.01   0.03   0.01    -0.08  -0.26  -0.19    -0.03   0.10   0.03
  10   9    -0.12   0.00  -0.01    -0.01   0.10  -0.03     0.02   0.04   0.05
  11   9     0.01  -0.02   0.04    -0.08  -0.12   0.00    -0.06   0.02   0.12
  12   9     0.03  -0.01   0.10    -0.06   0.05   0.57    -0.02   0.05   0.12
  13   9    -0.03   0.01   0.02     0.18  -0.12   0.03     0.54  -0.27  -0.07
  14   9     0.15  -0.11   0.03     0.10  -0.07  -0.02    -0.32   0.19  -0.20
  15   9     0.08   0.07  -0.01     0.15   0.24  -0.21    -0.10  -0.02   0.02
  16   9     0.08   0.15  -0.09     0.03   0.18  -0.14    -0.12  -0.20   0.12
  17   9     0.20   0.20   0.07    -0.13  -0.11   0.00     0.14   0.11   0.01
  18   9    -0.27  -0.20   0.12    -0.01  -0.02  -0.05    -0.02  -0.01   0.06
  19   9    -0.24   0.30  -0.13     0.04  -0.02   0.04    -0.05   0.07  -0.03
  20   9     0.10  -0.45  -0.12    -0.05   0.12   0.02     0.01  -0.07  -0.03
                    22                     23                     24
                    ?A                     ?A                     ?A
 Frequencies --   287.2108               305.0399               332.7320
 Red. masses --    17.2969                16.8009                16.8861
 Frc consts  --     0.8407                 0.9211                 1.1015
 IR Inten    --     0.6104                 2.6358                 2.5245
 Raman Activ --     1.7022                 0.6755                 1.8188
 Depolar     --     0.2530                 0.7100                 0.6127
 Atom AN      X      Y      Z        X      Y      Z        X      Y      Z
   1   5     0.01   0.28   0.01    -0.04  -0.09  -0.09     0.02   0.22  -0.37
   2   5     0.01   0.02   0.02    -0.05   0.05  -0.01     0.07   0.02  -0.03
   3   5    -0.15  -0.17  -0.13     0.08   0.17   0.00     0.10   0.14   0.06
   4   5     0.00   0.00   0.01    -0.02  -0.01   0.04    -0.01   0.03  -0.02
   5   5     0.13  -0.01   0.10     0.11   0.03   0.13    -0.03   0.05   0.03
   6   5    -0.15   0.02   0.10    -0.40   0.14  -0.03     0.07  -0.14   0.07
   7   5    -0.01  -0.02  -0.02     0.05   0.04   0.00    -0.01   0.00   0.03
   8   5     0.02  -0.03  -0.03    -0.04  -0.03  -0.01     0.04  -0.02  -0.03
   9   9     0.04   0.28   0.02    -0.01  -0.21  -0.09    -0.06  -0.28  -0.37
  10   9     0.03   0.44   0.29    -0.07  -0.09  -0.13     0.04   0.48   0.06
  11   9     0.01  -0.12  -0.45     0.05   0.08   0.22     0.01   0.09   0.29
  12   9    -0.07  -0.11   0.00     0.07   0.04  -0.15     0.09   0.08  -0.03
  13   9     0.07  -0.05   0.07     0.00  -0.04   0.08    -0.07   0.06  -0.01
  14   9     0.23  -0.17   0.02     0.23  -0.18   0.04    -0.01   0.01   0.02
  15   9    -0.07   0.05  -0.04    -0.03   0.41  -0.14    -0.13  -0.28   0.14
  16   9    -0.14  -0.22   0.08    -0.32  -0.31   0.21     0.06  -0.13   0.03
  17   9    -0.06  -0.03   0.00     0.09   0.07  -0.04    -0.02   0.00   0.03
  18   9    -0.01  -0.01  -0.02     0.10   0.08   0.02    -0.07  -0.05   0.00
  19   9     0.01  -0.04  -0.02     0.02   0.00  -0.02     0.00  -0.07  -0.03
  20   9     0.04  -0.08   0.01     0.03  -0.04  -0.01     0.03  -0.08   0.02
                    25                     26                     27
                    ?A                     ?A                     ?A
 Frequencies --   494.7392               505.5805               524.3967
 Red. masses --    13.6253                13.1679                14.1459
 Frc consts  --     1.9649                 1.9831                 2.2919
 IR Inten    --    97.0554                56.1309                81.1866
 Raman Activ --     0.5443                 0.0545                 1.1249
 Depolar     --     0.6420                 0.7023                 0.7303
 Atom AN      X      Y      Z        X      Y      Z        X      Y      Z
   1   5     0.04  -0.02   0.01     0.01  -0.02   0.04    -0.11   0.25   0.12
   2   5     0.33  -0.02   0.04    -0.03   0.02   0.00     0.02   0.23   0.33
   3   5     0.07  -0.06   0.04    -0.05   0.02  -0.01    -0.01   0.02   0.18
   4   5     0.51   0.00   0.03    -0.04   0.38  -0.27    -0.07   0.04   0.08
   5   5     0.20   0.20  -0.01    -0.02  -0.03   0.01    -0.01   0.05  -0.05
   6   5    -0.03   0.12   0.11    -0.01  -0.01  -0.01     0.13   0.23   0.47
   7   5     0.27  -0.07  -0.01    -0.23   0.46  -0.02    -0.02  -0.03   0.00
   8   5     0.31   0.03  -0.12     0.33   0.35  -0.12    -0.11   0.00   0.01
   9   9    -0.02  -0.02   0.03     0.00  -0.02   0.05     0.00  -0.27   0.16
  10   9    -0.07  -0.02  -0.04     0.03  -0.05  -0.05     0.02   0.04  -0.30
  11   9     0.00   0.02  -0.02     0.01  -0.01   0.00     0.16   0.17  -0.17
  12   9    -0.03   0.00  -0.01     0.01   0.00   0.01    -0.14  -0.20  -0.11
  13   9    -0.10   0.00  -0.15     0.01   0.00   0.02     0.06  -0.04   0.04
  14   9    -0.17   0.03   0.12     0.02   0.00  -0.01    -0.02   0.00  -0.08
  15   9    -0.08   0.07  -0.05     0.00   0.03  -0.02    -0.06  -0.08  -0.06
  16   9    -0.04  -0.13   0.03    -0.02  -0.02   0.01     0.04  -0.06  -0.10
  17   9    -0.16  -0.06   0.22     0.03  -0.09   0.17     0.01   0.00  -0.03
  18   9    -0.14  -0.10  -0.21    -0.03  -0.18  -0.10     0.01   0.02   0.02
  19   9    -0.05   0.09   0.13    -0.07  -0.25  -0.15     0.00   0.00  -0.06
  20   9    -0.12   0.02  -0.11     0.03  -0.09   0.28     0.04  -0.03   0.03
                    28                     29                     30
                    ?A                     ?A                     ?A
 Frequencies --   535.6268               561.0663               588.1783
 Red. masses --    12.5976                13.2472                13.9368
 Frc consts  --     2.1294                 2.4570                 2.8407
 IR Inten    --   100.6325                72.3506                33.3315
 Raman Activ --     2.0196                 0.5028                 0.0722
 Depolar     --     0.4049                 0.6370                 0.6945
 Atom AN      X      Y      Z        X      Y      Z        X      Y      Z
   1   5     0.58  -0.06  -0.05     0.51   0.01   0.09    -0.28  -0.15  -0.10
   2   5     0.01  -0.16   0.17    -0.06   0.19  -0.15    -0.02  -0.13   0.03
   3   5     0.44  -0.34   0.11    -0.13   0.04  -0.11     0.05   0.01   0.10
   4   5    -0.16   0.04   0.06    -0.07   0.11   0.05     0.11   0.16   0.42
   5   5     0.08  -0.08   0.01     0.14   0.33   0.01    -0.04   0.32  -0.05
   6   5    -0.08  -0.06   0.14     0.05   0.08  -0.23    -0.06  -0.16   0.05
   7   5    -0.03   0.03  -0.01     0.21  -0.11  -0.01     0.22   0.02  -0.06
   8   5    -0.09   0.02   0.01    -0.30   0.01   0.09    -0.30   0.06   0.02
   9   9    -0.11  -0.01  -0.03    -0.10  -0.04   0.15     0.07   0.08  -0.13
  10   9    -0.10   0.07   0.02    -0.11   0.00  -0.12     0.05  -0.07   0.15
  11   9    -0.06   0.10  -0.05    -0.06  -0.12   0.01     0.05   0.08   0.01
  12   9    -0.11   0.03  -0.04     0.06   0.05   0.07    -0.05  -0.05  -0.03
  13   9    -0.06   0.02  -0.14    -0.03  -0.08   0.04     0.03  -0.06   0.15
  14   9    -0.08   0.05   0.13    -0.01  -0.08  -0.06    -0.02  -0.04  -0.19
  15   9     0.17   0.04  -0.07    -0.20  -0.01   0.08     0.19  -0.07   0.00
  16   9    -0.15   0.10  -0.03     0.20  -0.10   0.04    -0.13   0.11  -0.02
  17   9     0.01   0.01  -0.03    -0.06   0.02   0.06    -0.09  -0.03   0.15
  18   9     0.02   0.02   0.03    -0.03   0.03  -0.09     0.01   0.00  -0.22
  19   9    -0.02  -0.02  -0.09     0.02  -0.04  -0.16    -0.05   0.02  -0.22
  20   9     0.06  -0.05   0.05     0.12  -0.01   0.12     0.12  -0.06   0.12
                    31                     32                     33
                    ?A                     ?A                     ?A
 Frequencies --   592.9950               599.7173               609.1081
 Red. masses --    13.0037                13.4732                13.5381
 Frc consts  --     2.6941                 2.8551                 2.9593
 IR Inten    --    28.5652                 4.3094                 4.9164
 Raman Activ --     0.9423                 0.4862                 3.7441
 Depolar     --     0.5460                 0.7259                 0.2171
 Atom AN      X      Y      Z        X      Y      Z        X      Y      Z
   1   5    -0.40   0.03   0.03     0.19  -0.26  -0.11    -0.08  -0.05  -0.01
   2   5     0.20  -0.01  -0.05    -0.05   0.04   0.06     0.10  -0.07   0.04
   3   5     0.41  -0.37  -0.16     0.08  -0.05   0.10    -0.33   0.27   0.01
   4   5    -0.06   0.04   0.20    -0.06  -0.08  -0.29    -0.09   0.01   0.03
   5   5     0.13   0.23  -0.01    -0.01   0.57  -0.02     0.52   0.35   0.01
   6   5     0.07   0.17   0.05     0.07   0.12   0.18    -0.05  -0.13  -0.02
   7   5    -0.23   0.03  -0.02    -0.16   0.04   0.04    -0.20  -0.04   0.00
   8   5    -0.04   0.08  -0.03     0.22  -0.04  -0.02    -0.01   0.07  -0.01
   9   9     0.09  -0.01   0.03    -0.04   0.11  -0.15     0.01   0.03  -0.02
  10   9     0.06  -0.04  -0.02    -0.06  -0.10   0.16     0.01  -0.01   0.03
  11   9    -0.22  -0.11   0.01     0.05   0.09  -0.02     0.11   0.02   0.00
  12   9     0.06   0.22   0.02    -0.06  -0.05  -0.02     0.01  -0.11   0.00
  13   9    -0.04  -0.02  -0.02    -0.04  -0.08   0.24    -0.01  -0.10  -0.30
  14   9    -0.04  -0.02   0.05    -0.01  -0.11  -0.24    -0.14  -0.04   0.25
  15   9    -0.16   0.04   0.00    -0.05  -0.02  -0.02     0.11  -0.06   0.02
  16   9     0.14  -0.11  -0.01     0.06  -0.03  -0.04    -0.06   0.06   0.00
  17   9     0.01  -0.05  -0.15     0.06   0.01  -0.08     0.02  -0.03  -0.19
  18   9     0.06   0.02   0.12    -0.01  -0.02   0.13     0.04   0.03   0.17
  19   9    -0.05   0.01  -0.10     0.03  -0.02   0.15    -0.02  -0.03  -0.07
  20   9     0.04  -0.05   0.05    -0.08   0.03  -0.08     0.02   0.01   0.08
                    34                     35                     36
                    ?A                     ?A                     ?A
 Frequencies --   620.7395               628.9682               651.9210
 Red. masses --    12.7142                15.7025                12.2039
 Frc consts  --     2.8864                 3.6600                 3.0559
 IR Inten    --     6.7589                 4.6474                14.4084
 Raman Activ --     1.0611                 6.0839                 0.9184
 Depolar     --     0.2809                 0.0038                 0.2237
 Atom AN      X      Y      Z        X      Y      Z        X      Y      Z
   1   5    -0.09  -0.15  -0.08    -0.01   0.21   0.13     0.24  -0.10  -0.04
   2   5     0.01   0.02   0.05    -0.02  -0.03   0.03    -0.13   0.03  -0.01
   3   5    -0.07   0.06  -0.17    -0.03  -0.01  -0.29    -0.22   0.17  -0.19
   4   5    -0.01  -0.01  -0.43     0.01  -0.02  -0.20    -0.02   0.04   0.52
   5   5     0.05  -0.15   0.02     0.02   0.28  -0.01     0.01  -0.07   0.00
   6   5     0.09   0.24   0.51    -0.10  -0.22   0.22     0.08   0.16   0.35
   7   5     0.19  -0.10   0.07     0.08  -0.14   0.04    -0.22   0.35  -0.10
   8   5    -0.32   0.01   0.15     0.12   0.01  -0.02     0.05  -0.14  -0.05
   9   9     0.01   0.09  -0.14     0.00  -0.11   0.22    -0.04   0.02  -0.03
  10   9     0.00  -0.12   0.15     0.01   0.13  -0.21    -0.04  -0.03   0.04
  11   9    -0.05  -0.09   0.04    -0.17  -0.22   0.04    -0.05  -0.14   0.04
  12   9     0.12   0.10  -0.04     0.20   0.22  -0.02     0.15   0.10  -0.05
  13   9     0.01   0.03  -0.10    -0.02  -0.04   0.13     0.03  -0.01  -0.04
  14   9     0.00   0.02   0.12    -0.01  -0.05  -0.14    -0.01   0.01   0.00
  15   9    -0.03  -0.03  -0.09     0.32  -0.15  -0.01    -0.01  -0.05  -0.05
  16   9    -0.02  -0.05  -0.08    -0.31   0.14  -0.02     0.00  -0.01  -0.07
  17   9     0.02   0.08   0.10     0.00   0.04   0.00     0.00  -0.09   0.03
  18   9    -0.07  -0.02  -0.03    -0.04   0.00   0.03     0.10  -0.02  -0.09
  19   9     0.04  -0.04  -0.11     0.02  -0.02   0.08     0.01   0.06   0.10
  20   9     0.07   0.09   0.12    -0.04   0.02  -0.03    -0.03  -0.10  -0.15
                    37                     38                     39
                    ?A                     ?A                     ?A
 Frequencies --   670.6580               792.5528               886.2790
 Red. masses --    12.8753                12.2621                12.3615
 Frc consts  --     3.4120                 4.5381                 5.7209
 IR Inten    --    17.6816                34.0597                25.6434
 Raman Activ --     1.2188                 0.3426                 1.3525
 Depolar     --     0.1417                 0.2965                 0.2131
 Atom AN      X      Y      Z        X      Y      Z        X      Y      Z
   1   5    -0.16   0.04   0.04     0.16  -0.02   0.00     0.00  -0.01  -0.01
   2   5     0.01   0.03   0.02     0.46  -0.08   0.00     0.14  -0.43   0.65
   3   5     0.11  -0.09   0.05    -0.10   0.08   0.00    -0.12   0.10  -0.06
   4   5    -0.11   0.00  -0.27     0.54  -0.02  -0.08    -0.17  -0.35   0.00
   5   5     0.17   0.16   0.01    -0.15  -0.09   0.00    -0.01   0.04   0.00
   6   5    -0.05  -0.08  -0.16    -0.03  -0.01  -0.03    -0.02  -0.07  -0.14
   7   5    -0.13   0.47  -0.03    -0.30   0.19  -0.02    -0.01   0.05  -0.01
   8   5    -0.37  -0.35   0.20    -0.33  -0.09   0.11     0.03   0.03  -0.02
   9   9     0.02  -0.03   0.05    -0.02   0.00   0.03    -0.01  -0.03  -0.02
  10   9     0.03   0.04  -0.06    -0.03   0.03  -0.02     0.01   0.09  -0.02
  11   9    -0.01   0.03  -0.02     0.02  -0.02  -0.01    -0.04  -0.10  -0.04
  12   9    -0.04  -0.02   0.02     0.01  -0.02   0.02     0.10   0.06  -0.08
  13   9    -0.01  -0.03  -0.06    -0.05   0.05   0.12    -0.01   0.00   0.04
  14   9    -0.01  -0.04   0.09    -0.03   0.05  -0.13    -0.06   0.03  -0.10
  15   9     0.03  -0.03   0.05     0.02   0.01   0.00    -0.10   0.17  -0.03
  16   9     0.00   0.03   0.02    -0.09  -0.02   0.04     0.16   0.01  -0.01
  17   9     0.10   0.01   0.23    -0.01  -0.10  -0.15     0.05   0.05   0.11
  18   9     0.03  -0.09  -0.18    -0.02  -0.07   0.19     0.04   0.01  -0.10
  19   9     0.15   0.03   0.16     0.00   0.05  -0.12    -0.04   0.02  -0.07
  20   9     0.02   0.00  -0.21     0.07   0.05   0.05     0.00   0.05   0.07
                    40                     41                     42
                    ?A                     ?A                     ?A
 Frequencies --   912.1457               919.2040              1007.0333
 Red. masses --    12.4123                12.3414                11.8881
 Frc consts  --     6.0846                 6.1438                 7.1031
 IR Inten    --     4.2862                 5.9820                18.4872
 Raman Activ --     0.4725                 1.6388                 1.4563
 Depolar     --     0.6914                 0.4401                 0.3374
 Atom AN      X      Y      Z        X      Y      Z        X      Y      Z
   1   5     0.00   0.03  -0.01    -0.02  -0.03  -0.02     0.05   0.07   0.01
   2   5     0.06   0.53   0.57     0.06  -0.52   0.03     0.72   0.12  -0.16
   3   5     0.01  -0.01  -0.01    -0.07   0.06  -0.01    -0.06   0.06  -0.08
   4   5     0.07   0.35   0.01    -0.10   0.69  -0.05    -0.53   0.00   0.06
   5   5    -0.03  -0.05   0.00    -0.01  -0.02   0.00     0.00  -0.09   0.01
   6   5    -0.04  -0.10  -0.24     0.00   0.00   0.06     0.04   0.05   0.00
   7   5     0.05  -0.07   0.01     0.13  -0.14   0.02    -0.01  -0.08   0.01
   8   5    -0.02  -0.01   0.01    -0.10  -0.04   0.04     0.04   0.06  -0.02
   9   9    -0.01  -0.02  -0.21     0.01   0.01   0.08     0.00   0.01  -0.04
  10   9    -0.02  -0.16   0.09     0.04   0.05  -0.02    -0.02  -0.11   0.05
  11   9    -0.09  -0.13  -0.10     0.03   0.02   0.03     0.03   0.01   0.00
  12   9     0.07   0.07  -0.05     0.01  -0.01  -0.01    -0.04  -0.06   0.08
  13   9     0.04  -0.02  -0.04    -0.01   0.01   0.03    -0.06   0.05   0.08
  14   9    -0.01   0.01   0.01    -0.03   0.02  -0.05    -0.04   0.04  -0.10
  15   9     0.04  -0.04   0.06    -0.08   0.12  -0.05     0.04  -0.05   0.01
  16   9    -0.04   0.01   0.05     0.09  -0.01  -0.02    -0.13  -0.03   0.04
  17   9    -0.04  -0.03  -0.07    -0.06  -0.03  -0.10     0.03   0.05   0.08
  18   9    -0.04  -0.01   0.07    -0.05   0.00   0.09     0.04   0.04  -0.11
  19   9     0.04  -0.02   0.07     0.11  -0.06   0.17     0.02  -0.02   0.05
  20   9     0.00  -0.06  -0.09     0.00  -0.12  -0.18    -0.01  -0.04  -0.04
                    43                     44                     45
                    ?A                     ?A                     ?A
 Frequencies --  1200.0760              1269.1116              1300.3601
 Red. masses --    12.7329                12.6691                12.5522
 Frc consts  --    10.8042                12.0225                12.5054
 IR Inten    --   281.2547               491.9319               493.3568
 Raman Activ --     0.4145                 0.7341                 1.8078
 Depolar     --     0.2154                 0.2860                 0.7227
 Atom AN      X      Y      Z        X      Y      Z        X      Y      Z
   1   5     0.08   0.66   0.32     0.07   0.26   0.06    -0.07  -0.18  -0.13
   2   5    -0.16  -0.18  -0.10     0.11  -0.18  -0.14     0.06   0.16  -0.16
   3   5    -0.01  -0.03   0.04    -0.06   0.08   0.54     0.00   0.08   0.59
   4   5     0.10  -0.01  -0.01    -0.04   0.02  -0.01    -0.12   0.01  -0.01
   5   5     0.37  -0.10   0.01    -0.48   0.27  -0.10     0.33  -0.19   0.04
   6   5    -0.04  -0.06   0.06     0.08   0.08  -0.02    -0.12  -0.25   0.15
   7   5    -0.08   0.00  -0.04    -0.10  -0.07  -0.02     0.18   0.12   0.00
   8   5    -0.02   0.00   0.01    -0.01  -0.02  -0.01     0.06  -0.18  -0.04
   9   9    -0.01  -0.04  -0.27     0.00  -0.01  -0.05     0.01   0.02   0.09
  10   9    -0.03  -0.27   0.11    -0.02  -0.11   0.04     0.01   0.06  -0.02
  11   9     0.00   0.01   0.01    -0.08  -0.14  -0.10    -0.10  -0.15  -0.12
  12   9     0.01   0.01  -0.02     0.12   0.11  -0.15     0.11   0.11  -0.15
  13   9    -0.11   0.04   0.13     0.12  -0.07  -0.15    -0.10   0.05   0.11
  14   9    -0.06   0.02  -0.12     0.11  -0.06   0.20    -0.07   0.04  -0.12
  15   9    -0.02   0.03  -0.02     0.01  -0.01   0.00    -0.04   0.07  -0.02
  16   9     0.05   0.01  -0.02    -0.06  -0.02   0.01     0.10   0.02  -0.03
  17   9     0.02   0.01   0.03     0.03   0.03   0.05    -0.04  -0.04  -0.06
  18   9     0.00  -0.01   0.00     0.02   0.01  -0.03    -0.03  -0.01   0.05
  19   9     0.00   0.00   0.00     0.00   0.00   0.00    -0.02   0.02  -0.03
  20   9     0.00   0.00   0.00     0.00   0.01   0.01     0.00   0.06   0.06
                    46                     47                     48
                    ?A                     ?A                     ?A
 Frequencies --  1322.1409              1332.2835              1379.9894
 Red. masses --    12.3453                12.3070                12.4705
[...]
 415222,-0.00417444,-0.00201400,0.00168725,-0.00369697,0.17472309,0.065
 94614,0.46836602,-0.00627256,0.00931241,0.00707361,0.00316754,0.001923
 08,-0.00484890,0.00048041,-0.01212467,-0.00218406,-0.14498822,0.013989
 36,0.02695729,-0.00511851,0.00029582,0.00624872,0.01915128,0.00003688,
 0.00178558,-0.01231268,0.01160117,-0.01298683,0.51912282,0.00717635,-0
 .00082486,-0.00024924,-0.00751344,-0.00716558,0.00411762,-0.01132117,0
 .00654523,0.01301148,0.02038977,-0.03819662,-0.00687361,0.00072081,0.0
 0688912,0.00118821,-0.00367819,0.00208458,0.00326177,0.01401190,0.0115
 6422,-0.00003163,0.05354773,0.65275686,0.00096030,0.00079836,-0.003261
 36,0.01143488,-0.00190964,-0.00956032,0.00030379,0.00546571,0.00683756
 ,0.01630814,-0.00110298,-0.05715534,0.00315110,0.00243921,-0.00260698,
 0.01424219,0.00326218,-0.01249675,-0.01428981,0.00404012,0.02009821,-0
 .09270594,0.06101164,0.17893365,-0.08102363,-0.07618521,-0.03993885,0.
 00345839,0.01074486,0.00963066,-0.00035655,0.00019691,-0.00595323,0.00
 297247,0.00089088,-0.00269183,-0.00165999,-0.00055504,0.00062369,0.001
 35389,-0.00276985,0.00024731,-0.00269283,-0.00037670,0.00039835,-0.000
 27920,-0.00058762,-0.00007062,0.09867286,-0.09242411,-0.33966644,-0.13
 122080,-0.00291731,-0.02712204,-0.01007654,0.00510900,0.00490161,0.005
 18642,0.00052294,-0.01061231,-0.00256834,0.00780181,-0.00685369,-0.011
 42287,-0.00417964,-0.00072654,-0.00505557,0.00224964,-0.01019692,0.001
 82210,-0.00438945,0.00006335,0.00145541,0.10926861,0.39225359,-0.04622
 774,-0.12954395,-0.09870534,-0.00290081,-0.00030019,0.00033032,-0.0025
 7304,-0.00004992,0.00572447,0.00602582,-0.00832436,-0.00625243,0.00160
 413,-0.00627372,-0.00665104,-0.00068332,0.00017506,-0.00301362,-0.0001
 9503,-0.00265071,0.00391759,-0.00201085,0.00182095,0.00055170,0.062870
 34,0.16127338,0.10201211,-0.34220847,-0.01557794,-0.11551185,-0.007538
 67,0.00609293,-0.01009025,-0.00474137,-0.00490742,-0.00364005,-0.01942
 621,0.00376300,0.00701494,-0.02313059,0.00819419,-0.00096721,0.0025394
 5,0.00191453,0.00632068,-0.01539153,0.00661200,-0.00309666,0.00517885,
 -0.00110531,-0.00311345,-0.02358477,-0.02111134,-0.01948151,0.41416448
 ,0.00544830,-0.05654995,-0.00672134,0.01459325,-0.00045935,0.01250908,
 -0.00038105,0.00257390,-0.00032229,-0.00040084,0.00056319,0.00343468,0
 .00866190,-0.00372676,-0.00374844,-0.00107609,-0.00318910,-0.00567734,
 0.00224600,-0.00377508,-0.00109304,-0.00101258,-0.00101584,0.00021035,
 -0.04290757,-0.00478064,-0.02044173,0.01491361,0.06431465,-0.10856969,
 -0.01318857,-0.08191237,-0.00601778,0.00873905,-0.00845616,-0.00357613
 ,-0.00234866,-0.00228798,0.01356317,-0.00032715,-0.00522461,-0.0118004
 7,0.00388058,0.00096981,0.00058467,0.00107710,0.00519948,-0.00310232,-
 0.00012444,0.00505178,-0.00165528,-0.00169874,0.00099034,-0.02695009,-
 0.01354166,-0.00025359,0.13920690,0.01591680,0.08604296,0.00243743,0.0
 0067165,-0.00267208,0.00909505,0.00423328,-0.00249650,-0.12342499,0.14
 220981,-0.05738071,-0.00047004,-0.00135764,0.00160925,-0.00133748,-0.0
 0383706,-0.00131952,-0.00202311,0.00373331,0.00036326,-0.00043331,-0.0
 0195425,-0.00024330,-0.00255496,0.00415511,0.00085763,-0.00068302,0.00
 050559,0.00099100,0.00059107,-0.00014963,0.00075803,0.13216783,-0.0086
 2331,0.00034526,-0.00344449,0.01323002,-0.02942609,0.00354428,0.144245
 68,-0.34010717,0.09697575,0.00353640,0.00858649,-0.00633914,-0.0061594
 3,-0.00450960,0.00771291,0.00520361,-0.00344042,0.00441319,-0.00132685
 ,0.00315122,-0.00297450,0.00510578,-0.00479237,-0.00242181,0.00255148,
 -0.00610702,-0.00138294,0.00219068,-0.00053584,0.00077253,-0.17615238,
 0.36180971,-0.00358513,-0.00215464,0.00121380,-0.00082030,-0.01156581,
 0.00771567,-0.05385953,0.08717476,-0.08103194,0.00050659,0.00026653,-0
 .00285188,-0.00075041,0.00322077,-0.00060772,0.00076196,0.00304889,-0.
 00035907,-0.00073084,0.00041663,-0.00083841,0.00044100,-0.00345912,-0.
 00166003,0.00114264,-0.00073251,-0.00092687,0.00069506,0.00020876,0.00
 023165,0.09027968,-0.11360448,0.09586961,-0.00503340,0.00282990,-0.006
 15764,0.00512823,-0.00136480,-0.00775117,-0.17835220,-0.02959949,-0.18
 508287,-0.00018536,-0.00071676,-0.00095105,-0.00493585,-0.00468977,0.0
 0147794,0.00320634,-0.00037429,0.00076441,-0.00304628,-0.00164663,-0.0
 0228886,0.00062151,0.00176346,-0.00027086,0.00080481,-0.00217311,0.000
 87887,0.00309737,0.00007110,0.00226108,-0.01753638,0.01955452,-0.03493
 543,0.19223781,-0.00240126,0.00435465,-0.00215229,-0.01062930,0.003038
 80,-0.01440117,-0.03121299,-0.07192779,-0.05376803,-0.00119666,-0.0013
 5599,0.00013751,-0.00477599,-0.00412514,0.00384223,0.00622132,-0.00689
 080,0.00123270,-0.00150180,-0.00021918,-0.00229078,0.00237412,-0.00149
 619,-0.00116907,0.00025081,-0.00196639,0.00046935,0.00177532,-0.000875
 86,0.00076009,0.02909687,0.00761335,0.03642254,0.01343643,0.06721406,-
 0.00601708,0.00230054,-0.00454139,-0.01458775,-0.01204101,-0.00594791,
 -0.18198944,-0.04278723,-0.28928100,-0.00131908,0.00234601,-0.00688407
 ,-0.00303995,0.00134419,0.00373150,0.00443522,-0.00374421,0.00218956,-
 0.00351596,-0.00219333,-0.00476680,0.00111102,-0.00252674,-0.00285198,
 0.00187108,-0.00250482,-0.00006156,0.00263674,-0.00062229,0.00210584,-
 0.03231082,0.02076694,-0.02075049,0.23228113,0.03255249,0.32485315,-0.
 00583582,0.00942543,0.00137270,0.00032660,0.00009016,0.01906669,-0.002
 34411,-0.00464632,0.00057255,-0.00110476,0.00259653,0.00119524,-0.0610
 9478,0.02864628,0.05656120,0.00410188,-0.00006818,-0.00180231,-0.00213
 716,0.00094882,-0.00136477,0.00195632,-0.00119429,0.00007940,0.0008287
 8,-0.00174269,-0.00043015,0.00519383,-0.00221931,0.00068114,0.00010181
 ,0.00141463,-0.00018442,0.00130787,0.00125914,0.00062015,0.04871795,0.
 00198667,-0.01152744,-0.00325335,0.00443308,0.00900784,-0.00591845,-0.
 00354219,-0.00156999,0.00298352,-0.00089692,0.00103772,-0.00007047,0.0
 2366073,-0.17170363,-0.17633630,-0.00130173,-0.00127212,-0.00069524,0.
 00113067,-0.00095537,-0.00004498,-0.00091102,-0.00075149,-0.00025541,-
 0.00114931,0.00316910,0.00490458,-0.00164652,0.00258923,-0.00052195,0.
 00079072,0.00045037,-0.00053234,0.00067116,0.00057878,-0.00042037,-0.0
 1339777,0.21173737,0.00715793,-0.01243578,-0.00979614,0.00187997,-0.00
 281398,-0.01158620,0.00247395,0.00776646,0.00091143,0.00463804,-0.0044
 5309,-0.00238933,0.05876828,-0.18465093,-0.32244170,-0.00201096,0.0000
 8333,-0.01224178,0.00173774,-0.00284668,0.00304059,-0.00457273,0.00229
 923,-0.00022415,-0.00082622,0.00343937,0.00296091,-0.00161327,0.002128
 55,0.00028026,0.00028167,-0.00299027,0.00053832,-0.00165429,-0.0017438
 0,-0.00135098,-0.06024359,0.22482055,0.34817986,-0.00937774,0.01389858
 ,-0.00525340,-0.01202883,-0.01875419,0.01758379,-0.00713039,-0.0076245
 2,-0.00063535,-0.00039803,-0.00523532,-0.00141453,-0.17348667,-0.19344
 915,-0.00369909,0.00313932,0.00008521,0.00173024,-0.00376328,0.0022718
 0,-0.00203453,0.00409782,0.00003490,0.00011723,0.00024235,-0.00333295,
 -0.00139793,0.00724303,-0.00103570,0.00353550,0.00047763,0.00319406,0.
 00033111,0.00281349,0.00252940,0.00164603,0.01385386,-0.01081407,-0.01
 069651,0.17640633,-0.00200857,0.00610118,-0.00607202,-0.00886600,-0.00
 371537,0.00123367,-0.00691419,-0.00999904,0.00268131,-0.00350097,-0.00
 089072,0.00165263,-0.17789345,-0.30955500,-0.01315248,0.00143420,-0.00
 136172,0.00451098,-0.00146231,0.00030997,-0.00253801,0.00282314,-0.001
 09450,0.00022478,-0.00090645,-0.00171217,0.00106020,0.00115989,-0.0004
 0602,0.00179221,0.00184004,0.00405825,-0.00098962,0.00183218,0.0028359
 4,0.00011937,-0.02094574,-0.04289427,-0.03056878,0.21807049,0.35652097
 ,0.00443580,-0.00730421,-0.00028810,0.01184910,0.01147232,0.00173735,-
 0.00114811,0.00370240,-0.00035409,0.00143917,0.00113734,0.00140262,0.0
 0107674,-0.00411407,-0.05879364,0.00088358,0.00179602,-0.00596675,0.00
 080431,-0.00135170,0.00121276,-0.00240748,-0.00059663,-0.00018876,-0.0
 0018184,0.00270542,0.00181337,-0.00113733,0.00065937,-0.00001138,0.001
 00772,-0.00211865,0.00056828,0.00019169,-0.00063154,-0.00104879,-0.018
 61936,-0.04493133,-0.00192570,-0.00067017,0.03984027,0.05893577,-0.000
 67830,-0.01076509,0.00336995,-0.02342622,-0.00061527,0.00439935,-0.002
 89615,0.00725887,0.00127610,0.00002717,-0.00178619,0.00363861,0.004421
 06,0.00510464,-0.00767735,-0.36777502,-0.03731422,0.09737864,0.0010672
 1,-0.00213135,0.00143208,-0.01374268,0.00211735,-0.00791132,0.00014873
 ,0.00306272,0.00084626,-0.00303004,0.00372735,-0.00333331,0.00121866,-
 0.00279759,-0.00018418,-0.00086751,-0.00292835,-0.00257338,-0.00094554
 ,0.00046821,0.00250367,-0.00113434,-0.00288176,0.00159049,0.40556814,-
 0.00281840,-0.00243468,0.00100079,-0.00148342,0.01659783,0.00247980,0.
 00414111,-0.00263776,0.00102790,0.00074367,-0.00050268,0.00008133,0.00
 044944,0.00131839,0.00033047,-0.03555033,-0.04931642,0.01512645,-0.000
 08609,-0.00010187,-0.00045625,-0.00064044,-0.00456474,-0.00253896,0.00
 049781,0.00032418,-0.00023090,-0.00055612,0.00092585,-0.00073613,-0.00
 104898,0.00070910,-0.00034730,-0.00019726,0.00105690,0.00067443,-0.000
 00668,0.00001463,-0.00006369,0.00022532,0.00001336,-0.00055107,0.04807
 488,0.02517770,-0.00042329,-0.00276751,-0.00083977,-0.00961410,0.00131
 043,0.00810022,0.00088784,0.00094807,0.00034111,-0.00149414,0.00172368
 ,-0.00225141,-0.00126658,0.00138689,-0.00632842,0.09294518,0.01506824,
 -0.09440641,0.00002955,-0.00075209,0.00173600,0.00268163,-0.00283857,0
 .00897241,0.00018579,0.00085593,0.00062897,-0.00114111,0.00084668,-0.0
 0025999,0.00010155,-0.00092492,0.00041788,0.00018031,0.00020472,0.0002
 3793,0.00048530,0.00003671,0.00239809,-0.00048208,-0.00087182,0.001353
 72,-0.13536258,-0.03012028,0.12737655,0.00191652,-0.00294672,-0.000886
 67,0.00661332,0.00391373,-0.01648878,-0.00056636,0.00399238,-0.0002940
 7,-0.00316942,-0.00033462,-0.00153041,0.00271813,0.00099735,0.00181495
 ,-0.06581334,0.00081014,-0.01138862,0.00171877,-0.00042043,0.00096647,
 -0.00469164,0.00032211,-0.00194226,-0.00007293,0.00124658,0.00037123,-
 0.00086003,0.00050851,-0.00003179,0.00066866,-0.00165272,0.00008413,-0
 .00065403,-0.00159361,-0.00087410,-0.00236240,0.00057275,-0.00070587,-
 0.00072654,-0.00070898,-0.00015422,-0.00597203,-0.01226636,0.05408869,
 0.06931947,-0.00132918,-0.00060001,-0.00086180,-0.00083911,0.01531226,
 0.00536270,0.00251419,-0.00452529,0.00304684,-0.00007694,0.00182695,-0
 .00169543,-0.00020111,-0.00267717,0.00153372,0.00087937,-0.06036581,0.
 07591139,-0.00003164,-0.00027416,-0.00072675,0.00010329,0.00023329,-0.
 00075057,0.00036242,-0.00015078,0.00003377,0.00010891,0.00020129,0.000
 02964,-0.00057684,0.00115874,-0.00083330,0.00047571,0.00191344,0.00096
 610,0.00051907,0.00086368,-0.00009057,0.00027281,0.00089168,-0.0005508
 9,-0.00889439,0.01073835,0.01386061,0.00686487,0.03529827,0.00308903,-
 0.00623517,-0.00371762,-0.00221323,0.00595171,-0.01318997,0.00072910,0
 .00676380,0.00012448,-0.00362181,0.00063733,-0.00150256,0.00246505,0.0
 0177935,-0.01399267,-0.01038199,0.07674751,-0.41646477,0.00226876,-0.0
 0107040,0.00267349,-0.00210182,-0.00136124,0.00448007,-0.00059511,0.00
 240629,0.00160098,-0.00306649,0.00192584,-0.00040271,0.00026164,-0.002
 89207,0.00036652,-0.00119438,-0.00252901,-0.00176704,0.00046669,0.0002
 8801,0.00662343,-0.00159421,-0.00121492,0.00269566,0.03768010,0.012824
 66,-0.03803776,-0.02246635,-0.09590507,0.47552881,-0.00591424,0.004286
 92,0.00063104,-0.00081276,-0.00015374,-0.00239350,-0.00053523,-0.00190
 314,-0.00021786,0.01193086,0.01081381,-0.00603801,-0.00219457,0.000315
 81,0.00045267,0.00142305,0.00020327,-0.00006678,-0.05452328,0.04334861
 ,-0.01233538,0.00158320,-0.00274275,0.00175969,0.00093013,-0.00131403,
 0.00014327,0.00346572,-0.00211466,0.00173838,-0.00002438,0.00051713,0.
 00000901,0.00040179,0.00051257,0.00039103,0.00059536,-0.00030906,-0.00
 061146,0.00071564,0.00028903,-0.00018430,-0.00028268,0.00004274,-0.000
 06693,-0.00059820,0.00005356,-0.00085761,0.02966464,0.00422280,-0.0124
 9934,-0.00478984,0.00097368,-0.00047424,0.00369964,-0.00062267,0.00316
 681,-0.00113344,0.00330153,-0.01655761,0.00319964,0.00289867,-0.000067
 59,-0.00279076,-0.00290982,-0.00052020,-0.00128931,0.03990499,-0.43982
 444,0.03889432,-0.00712506,-0.00158501,0.00390480,0.00016403,0.0058132
 0,0.00005123,-0.00251449,0.00235040,0.00117982,0.00059926,-0.00145597,
 0.00031680,0.00024768,-0.00100861,0.00094504,-0.00095999,0.00072528,0.
 00198125,-0.00123285,-0.00063272,0.00078632,0.00113772,0.00005662,0.00
 061129,0.00112791,-0.00011254,0.00193179,-0.03201826,0.51034075,-0.000
 72823,-0.00002436,0.00165154,-0.00125915,0.00113922,-0.00229095,-0.000
 73448,-0.00256507,-0.00083630,-0.00612992,0.01442792,0.00813191,-0.001
 25540,-0.00095714,0.00126100,0.00149868,-0.00024893,0.00064065,-0.0123
 3538,0.04432595,-0.06456115,0.00339179,-0.00074159,-0.00554714,0.00014
 239,0.00072692,-0.00095112,0.00096779,0.00062629,-0.00066802,-0.000033
 62,0.00091697,0.00007377,0.00056662,0.00077998,0.00085510,0.00045042,-
 0.00003151,-0.00086904,0.00066665,0.00070847,-0.00038043,-0.00056185,0
 .00007775,-0.00038042,-0.00061493,0.00021991,-0.00115411,0.02011200,-0
 .01743343,0.05313085,-0.00709369,0.00188500,0.00284360,0.00114481,0.00
 106717,-0.00099244,-0.00227183,-0.00248830,-0.00462197,0.00489939,-0.0
 0597720,-0.01954350,-0.00356030,0.00064329,0.00147714,0.00185323,0.000
 32895,0.00087918,-0.11715255,-0.08217092,-0.13331712,0.00355957,-0.001
 51354,0.00210057,0.00056798,-0.00084031,-0.00057255,0.00454327,0.00016
 330,0.00105133,0.00016383,0.00106834,0.00092832,0.00192131,0.00050437,
 0.00274356,0.00068863,-0.00027334,-0.00086259,0.00181340,0.00085322,-0
 .00046097,-0.00076222,0.00004200,-0.00016560,-0.00065211,-0.00003953,-
 0.00102160,0.01464420,-0.01223515,-0.00106083,0.09758824,0.00144712,-0
 .00323876,0.00055500,-0.00025626,-0.00012762,-0.00077321,-0.00258965,-
 0.00120637,-0.00311609,-0.00052587,0.00625859,0.00134740,-0.00024271,-
 0.00069397,-0.00054280,-0.00017686,-0.00006318,-0.00027146,-0.07710666
 ,-0.15534856,-0.14591445,-0.00000043,-0.00253950,-0.00164696,0.0000004
 9,0.00157366,-0.00023175,-0.00039922,0.00104944,-0.00096611,0.00073414
 ,-0.00023879,0.00064466,0.00156287,-0.00054571,0.00371177,0.00005453,0
 .00019708,0.00016871,0.00016152,0.00043377,0.00014299,0.00017804,0.000
 06917,-0.00003625,-0.00005342,0.00005078,-0.00007335,-0.02069598,-0.04
 955347,-0.04185320,0.09800593,0.20225289,-0.00625946,0.00187855,0.0076
 5095,0.00048057,0.00362944,-0.00081616,-0.00206724,-0.00404974,-0.0066
 9968,-0.01495613,-0.01432847,-0.01412803,-0.00338509,-0.00132090,0.002
 86433,0.00245771,0.00036108,0.00192383,-0.13227033,-0.15353168,-0.2930
 9730,0.00635009,0.00145054,-0.00465860,0.00004151,-0.00174510,-0.00206
 407,0.00344545,0.00037239,-0.00050429,-0.00014932,0.00226286,0.0012794
 1,0.00144214,0.00139045,0.00327592,0.00079364,-0.00007693,-0.00165401,
 0.00186815,0.00127704,-0.00065331,-0.00127556,0.00013698,-0.00059349,-
 0.00083938,0.00004723,-0.00159594,-0.00198375,-0.02766098,0.00902989,0
 .15081424,0.18801069,0.29716390,0.00482843,-0.00659768,-0.00494822,-0.
 00311230,-0.00241281,0.00325487,0.00087061,0.00499047,0.00316507,-0.01
 726798,-0.01564727,0.00239125,0.00223791,0.00299152,-0.00272250,-0.006
 57116,-0.00117293,-0.00150466,0.00357008,-0.00238220,0.00621229,-0.256
 34189,-0.19833546,0.02449260,0.00034187,0.00346101,0.00196050,-0.00349
 401,0.00064405,0.00030940,0.00078605,-0.00284912,-0.00040428,-0.000446
 31,-0.00078158,-0.00116301,-0.00128875,0.00023535,0.00309719,-0.001239
 28,-0.00116987,0.00073360,0.00492472,0.00106344,-0.00022342,0.00164300
 ,0.00002675,0.00111175,-0.00045558,0.00326502,-0.00210974,-0.00104610,
 -0.00001329,-0.00157379,0.24967610,0.00072625,-0.00357736,-0.00187276,
 -0.00039666,0.00069748,0.00040341,0.00236406,0.00006946,-0.00095215,-0
 .00691634,0.00165288,-0.00041608,0.00085305,-0.00007305,-0.00143272,0.
 00053748,-0.00075082,-0.00197702,-0.00127517,-0.00376680,0.00311637,-0
 .19211385,-0.25663236,0.01948346,0.00045209,0.00191976,0.00047974,-0.0
 0127637,0.00061347,0.00033913,-0.00057178,-0.00002991,0.00044622,-0.00
 058093,0.00005077,-0.00001855,-0.00031500,0.00028183,0.00089785,-0.000
 50720,-0.00023690,0.00040911,-0.00049428,0.00048592,0.00316507,0.00010
 416,-0.00007140,0.00109632,0.00038828,0.00255803,-0.00108326,0.0000398
 8,0.00064319,-0.00063474,0.22567850,0.31884916,-0.00080298,0.00046158,
 0.00115809,-0.00170664,0.00134151,0.00172309,0.00029605,-0.00120580,-0
 .00198225,0.00673328,0.00136332,0.01336895,-0.00062592,-0.00086733,0.0
 0056086,-0.00329384,-0.00080067,0.00143918,0.00197484,-0.00047929,-0.0
 0466510,0.02969893,0.02396275,-0.04735819,0.00001713,-0.00052862,-0.00
 026852,0.00114694,-0.00008543,-0.00018086,-0.00034052,0.00080426,0.000
 44148,0.00007312,0.00025957,0.00065398,0.00007821,0.00008425,-0.000189
 76,0.00002247,0.00001234,0.00001472,0.00287071,0.00231384,-0.00363376,
 0.00054819,0.00015731,-0.00098549,-0.00022008,-0.00127775,0.00147995,-
 0.00036404,0.00025303,0.00073838,-0.02843439,-0.01574056,0.02352713,0.
 00208652,-0.00235289,-0.00493094,-0.00002887,-0.00153000,0.00135834,-0
 .00086397,0.00419779,0.00080696,-0.00487700,0.02439224,0.00826033,0.00
 170676,-0.00061983,-0.00235754,-0.00598831,0.00060902,-0.00045187,0.00
 074186,-0.00430253,0.00545260,-0.11261699,0.12375228,0.04449674,0.0000
 3069,0.00119705,0.00078152,-0.00261135,0.00032005,0.00134725,0.0007796
 4,-0.00225092,0.00027503,-0.00048321,-0.00093880,-0.00034540,-0.000559
 57,0.00029259,0.00125905,-0.00151777,-0.00104390,0.00095158,0.00413705
 ,-0.00062632,-0.00134602,0.00154116,-0.00019222,0.00104246,-0.00001367
 ,0.00177497,-0.00097280,-0.00084906,-0.00008427,-0.00293345,0.02238458
 ,-0.02669618,-0.00767146,0.09700150,-0.00272676,0.00122558,0.00507592,
 0.00048293,0.00261449,-0.00167855,0.00643879,-0.00627473,-0.00510132,0
 .00777805,-0.01300215,-0.00543369,-0.00152412,-0.00083897,0.00106593,0
 .00102267,-0.00174153,0.00091754,-0.00238318,0.00030672,-0.00539012,0.
 11720471,-0.35947761,-0.09050062,0.00005736,-0.00012352,-0.00083810,0.
 00236967,0.00013300,-0.00103355,-0.00292121,0.00276069,0.00205257,-0.0
 0110196,0.00175497,0.00113166,0.00054139,0.00002138,-0.00092773,0.0012
 4187,0.00133331,-0.00050146,-0.00052128,0.00207015,-0.00170687,-0.0004
 8362,0.00028843,-0.00107141,0.00047988,-0.00071934,0.00098911,0.000936
 84,0.00102736,0.00253129,-0.01099389,-0.06268335,-0.01002831,-0.115898
 13,0.43132512,-0.00046890,0.00026175,0.00250206,-0.00172884,0.00024010
 ,0.00132950,-0.00080356,-0.00208782,-0.00264374,0.00940828,-0.01158252
 ,0.01030225,-0.00124320,-0.00046108,0.00075387,-0.00308441,-0.00002182
 ,0.00246733,0.00206840,0.00075757,-0.00624197,0.03973421,-0.09174707,-
 0.07329433,0.00003690,-0.00047440,-0.00039226,0.00142466,-0.00012689,-
 0.00071016,0.00043498,0.00092356,0.00031002,0.00016924,0.00063407,0.00
 134902,0.00022127,-0.00002899,-0.00026410,0.00037664,0.00029435,-0.000
 12330,0.00189356,-0.00102983,-0.00483145,0.00034380,0.00024516,-0.0012
 8280,-0.00026143,-0.00112642,0.00138401,0.00014528,0.00059138,0.002538
 25,-0.00364450,-0.00570885,0.01415812,-0.04502239,0.11044773,0.0526896
 6\\-0.00000276,-0.00000070,0.00000704,-0.00001071,-0.00000705,0.000000
 14,0.00000373,0.00000203,0.00001565,0.00000388,-0.00000062,-0.00000562
 ,0.00000960,0.00000945,-0.00000781,0.00000892,-0.00000014,0.00000799,0
 .00000094,-0.00000244,0.00000686,-0.00000481,-0.00000212,-0.00000489,0
 .00000091,-0.00000230,-0.00000258,0.00000224,0.00000080,-0.00000329,0.
 00000396,-0.00000173,-0.00000563,-0.00000403,-0.00000203,-0.00000665,-
 0.00000050,0.00000185,0.00000170,-0.00000295,-0.00000410,-0.00000212,-
 0.00000739,-0.00000181,-0.00000114,0.00000070,-0.00000093,0.00000084,0
 .,0.00000673,-0.00000105,-0.00000134,-0.00000288,-0.00000397,0.0000051
 5,0.00000425,-0.00000163,-0.00000556,0.00000374,0.00000617\\\@


 In the beginning there was nothing, which exploded.
 Job cpu time:  0 days  6 hours 26 minutes 57.0 seconds.
 File lengths (MBytes):  RWF=  366 Int=    0 D2E=    0 Chk=    9 Scr=    1
 Normal termination of Gaussian 98.

