 Entering Gaussian System, Link 0=g98
 Initial command:
 /usr/local/share/g98/l1.exe /scr/Thomas/Gau-24758.inp -scrdir=/scr/Thomas/
 Entering Link 1 = /usr/local/share/g98/l1.exe PID=     24767.
  
 Copyright (c) 1988,1990,1992,1993,1995,1998 Gaussian, Inc.
                  All Rights Reserved.
  
 This is part of the Gaussian(R) 98 program.  It is based on
 the Gaussian 94(TM) system (copyright 1995 Gaussian, Inc.),
 the Gaussian 92(TM) system (copyright 1992 Gaussian, Inc.),
 the Gaussian 90(TM) system (copyright 1990 Gaussian, Inc.),
 the Gaussian 88(TM) system (copyright 1988 Gaussian, Inc.),
 the Gaussian 86(TM) system (copyright 1986 Carnegie Mellon
 University), and the Gaussian 82(TM) system (copyright 1983
 Carnegie Mellon University). Gaussian is a federally registered
 trademark of Gaussian, Inc.
  
 This software contains proprietary and confidential information,
 including trade secrets, belonging to Gaussian, Inc.
  
 This software is provided under written license and may be
 used, copied, transmitted, or stored only in accord with that
 written license.
  
 The following legend is applicable only to US Government
 contracts under DFARS:
  
                    RESTRICTED RIGHTS LEGEND
  
 Use, duplication or disclosure by the US Government is subject
 to restrictions as set forth in subparagraph (c)(1)(ii) of the
 Rights in Technical Data and Computer Software clause at DFARS
 252.227-7013.
  
 Gaussian, Inc.
 Carnegie Office Park, Building 6, Pittsburgh, PA 15106 USA
  
 The following legend is applicable only to US Government
 contracts under FAR:
  
                    RESTRICTED RIGHTS LEGEND
  
 Use, reproduction and disclosure by the US Government is subject
 to restrictions as set forth in subparagraph (c) of the
 Commercial Computer Software - Restricted Rights clause at FAR
 52.227-19.
  
 Gaussian, Inc.
 Carnegie Office Park, Building 6, Pittsburgh, PA 15106 USA
  
  
 ---------------------------------------------------------------
 Warning -- This program may not be used in any manner that
 competes with the business of Gaussian, Inc. or will provide
 assistance to any competitor of Gaussian, Inc.  The licensee
 of this program is prohibited from giving any competitor of
 Gaussian, Inc. access to this program.  By using this program,
 the user acknowledges that Gaussian, Inc. is engaged in the
 business of creating and licensing software in the field of
 computational chemistry and represents and warrants to the
 licensee that it is not a competitor of Gaussian, Inc. and that
 it will not use this program in any manner prohibited above.
 ---------------------------------------------------------------
  

 Cite this work as:
 Gaussian 98, Revision A.7,
 M. J. Frisch, G. W. Trucks, H. B. Schlegel, G. E. Scuseria, 
 M. A. Robb, J. R. Cheeseman, V. G. Zakrzewski, J. A. Montgomery, Jr., 
 R. E. Stratmann, J. C. Burant, S. Dapprich, J. M. Millam, 
 A. D. Daniels, K. N. Kudin, M. C. Strain, O. Farkas, J. Tomasi, 
 V. Barone, M. Cossi, R. Cammi, B. Mennucci, C. Pomelli, C. Adamo, 
 S. Clifford, J. Ochterski, G. A. Petersson, P. Y. Ayala, Q. Cui, 
 K. Morokuma, D. K. Malick, A. D. Rabuck, K. Raghavachari, 
 J. B. Foresman, J. Cioslowski, J. V. Ortiz, A. G. Baboul, 
 B. B. Stefanov, G. Liu, A. Liashenko, P. Piskorz, I. Komaromi, 
 R. Gomperts, R. L. Martin, D. J. Fox, T. Keith, M. A. Al-Laham, 
 C. Y. Peng, A. Nanayakkara, C. Gonzalez, M. Challacombe, 
 P. M. W. Gill, B. Johnson, W. Chen, M. W. Wong, J. L. Andres, 
 C. Gonzalez, M. Head-Gordon, E. S. Replogle, and J. A. Pople, 
 Gaussian, Inc., Pittsburgh PA, 1998.

 *********************************************
 Gaussian 98:  x86-Linux-G98RevA.7 11-Apr-1999
                  20-Jun-2004 
 *********************************************
 %chk=/scr/Thomas/clsnsn1.chk
 Default route:  MaxDisk=2000MB
 ----------------------------------------------------------------
 #n rB3PW91/6-311++G** opt=readfc guess=read geom=checkpoint freq
 ----------------------------------------------------------------
 1/10=3,14=-1,18=20,26=3,29=2,38=1/1,3;
 2/9=110/2;
 3/5=4,6=6,7=1111,11=2,25=1,30=1/1,2,3;
 4/5=1,7=1/1;
 5/5=2,42=-6/2;
 6/7=2,8=2,9=2,10=2,28=1/1;
 7//1,2,3,16;
 1/14=-1,18=20/3(1);
 99//99;
 2/9=110/2;
 3/5=4,6=6,7=1111,11=2,25=1,30=1/1,2,3;
 4/5=5,7=1,16=2/1;
 5/5=2,38=4,42=-6/2;
 7//1,2,3,16;
 1/14=-1,18=20/3(-5);
 2/9=110/2;
 6/7=2,8=2,9=2,10=2,19=2,28=1/1;
 99/9=1/99;
 ------------------------------------------------------
 calculation with conf. 1 data for ClSiH2-N(SiMe3)-NMe2
 ------------------------------------------------------
 Redundant internal coordinates taken from checkpointfile:
 /scr/Thomas/clsnsn1.chk
 Charge =  0 Multiplicity = 1
 N,0,0.0505434124,0.3467184625,-0.3005002006
 N,0,0.2704802758,1.6582641131,0.290346526
 C,0,-0.7013830019,1.984576919,1.3311867748
 H,0,-0.7234053105,1.1866619153,2.073321135
 H,0,-0.3884886015,2.9103248712,1.821039851
 H,0,-1.7237828887,2.131897899,0.9455970348
 C,0,0.3900106189,2.7055463688,-0.7213361189
 H,0,0.7054774507,3.6288175795,-0.227967977
 H,0,1.1535714447,2.4213511447,-1.4456192319
 H,0,-0.5498788071,2.9073502387,-1.2584940345
 Si,0,1.4403005489,-0.6940224685,0.1008120265
 C,0,1.132148011,-2.3989797741,-0.6450032972
 H,0,1.9693011079,-3.0552992153,-0.3845956294
 H,0,0.2222188552,-2.8683553621,-0.260163324
 H,0,1.0648800436,-2.3729901901,-1.7358039615
 C,0,3.0083979636,0.0484551922,-0.6310374126
 H,0,3.1829905637,1.0562621624,-0.2459799989
 H,0,3.8796481854,-0.5620238027,-0.3718151287
 H,0,2.9541334126,0.1033747471,-1.7222879102
 C,0,1.6147177593,-0.8463365035,1.9695158126
 H,0,0.7299533922,-1.3103926746,2.4148712371
 H,0,2.4802525589,-1.4662315738,2.2257248322
 H,0,1.7583866145,0.1324538723,2.433977286
 Si,0,-1.4510219304,-0.0952921957,-1.0416154012
 H,0,-2.1479342489,1.0932917647,-1.5712962282
 H,0,-1.213951397,-1.1162965107,-2.0779842218
 Cl,0,-2.8302227622,-0.98613193,0.2829320403
 Recover connectivity data from disk.

 GradGradGradGradGradGradGradGradGradGradGradGradGradGradGradGradGradGrad
 Berny optimization.
 Initialization pass.
 Force constant matrix read from checkpoint file:
 /scr/Thomas/clsnsn1.chk
                         ----------------------------
                         !    Initial Parameters    !
                         ! (Angstroms and Degrees)  !
 ------------------------                            -------------------------
 ! Name  Definition              Value          Derivative Info.             !
 -----------------------------------------------------------------------------
 ! R1    R(1,2)                  1.4552         D2E/DX2 =    0.2929          !
 ! R2    R(1,11)                 1.782          D2E/DX2 =    0.2278          !
 ! R3    R(1,24)                 1.7319         D2E/DX2 =    0.261           !
 ! R4    R(2,3)                  1.4609         D2E/DX2 =    0.3105          !
 ! R5    R(2,7)                  1.461          D2E/DX2 =    0.3122          !
 ! R6    R(3,4)                  1.0899         D2E/DX2 =    0.3424          !
 ! R7    R(3,5)                  1.0931         D2E/DX2 =    0.3347          !
 ! R8    R(3,6)                  1.1026         D2E/DX2 =    0.3108          !
 ! R9    R(7,8)                  1.0933         D2E/DX2 =    0.3344          !
 ! R10   R(7,9)                  1.0901         D2E/DX2 =    0.3414          !
 ! R11   R(7,10)                 1.1012         D2E/DX2 =    0.3134          !
 ! R12   R(11,12)                1.8863         D2E/DX2 =    0.1803          !
 ! R13   R(11,16)                1.883          D2E/DX2 =    0.1814          !
 ! R14   R(11,20)                1.883          D2E/DX2 =    0.1811          !
 ! R15   R(12,13)                1.0952         D2E/DX2 =    0.3321          !
 ! R16   R(12,14)                1.0938         D2E/DX2 =    0.3348          !
 ! R17   R(12,15)                1.0932         D2E/DX2 =    0.3362          !
 ! R18   R(16,17)                1.0929         D2E/DX2 =    0.3372          !
 ! R19   R(16,18)                1.095          D2E/DX2 =    0.3324          !
 ! R20   R(16,19)                1.094          D2E/DX2 =    0.3341          !
 ! R21   R(20,21)                1.0938         D2E/DX2 =    0.3346          !
 ! R22   R(20,22)                1.095          D2E/DX2 =    0.3323          !
 ! R23   R(20,23)                1.0929         D2E/DX2 =    0.3369          !
 ! R24   R(24,25)                1.4761         D2E/DX2 =    0.1898          !
 ! R25   R(24,26)                1.474          D2E/DX2 =    0.1917          !
 ! R26   R(24,27)                2.1096         D2E/DX2 =    0.1478          !
 ! A1    A(2,1,11)             108.4853         D2E/DX2 =    0.0963          !
 ! A2    A(2,1,24)             122.3316         D2E/DX2 =    0.1165          !
 ! A3    A(11,1,24)            128.5712         D2E/DX2 =    0.0954          !
 ! A4    A(1,2,3)              112.9567         D2E/DX2 =    0.0991          !
 ! A5    A(1,2,7)              112.1643         D2E/DX2 =    0.0999          !
 ! A6    A(3,2,7)              112.8083         D2E/DX2 =    0.1018          !
 ! A7    A(2,3,4)              109.5746         D2E/DX2 =    0.1195          !
 ! A8    A(2,3,5)              108.5428         D2E/DX2 =    0.1189          !
 ! A9    A(2,3,6)              113.4248         D2E/DX2 =    0.1247          !
 ! A10   A(4,3,5)              108.7024         D2E/DX2 =    0.0545          !
 ! A11   A(4,3,6)              108.4941         D2E/DX2 =    0.0599          !
 ! A12   A(5,3,6)              107.9983         D2E/DX2 =    0.0593          !
 ! A13   A(2,7,8)              108.4488         D2E/DX2 =    0.1201          !
 ! A14   A(2,7,9)              109.2989         D2E/DX2 =    0.1199          !
 ! A15   A(2,7,10)             113.5346         D2E/DX2 =    0.1241          !
 ! A16   A(8,7,9)              108.5337         D2E/DX2 =    0.0543          !
 ! A17   A(8,7,10)             108.1578         D2E/DX2 =    0.059           !
 ! A18   A(9,7,10)             108.7543         D2E/DX2 =    0.06            !
 ! A19   A(1,11,12)            108.1456         D2E/DX2 =    0.0231          !
 ! A20   A(1,11,16)            109.3682         D2E/DX2 =    0.0206          !
 ! A21   A(1,11,20)            110.0579         D2E/DX2 =    0.0201          !
 ! A22   A(12,11,16)           109.8018         D2E/DX2 =    0.0212          !
 ! A23   A(12,11,20)           109.5364         D2E/DX2 =    0.0214          !
 ! A24   A(16,11,20)           109.9051         D2E/DX2 =    0.0215          !
 ! A25   A(11,12,13)           108.8314         D2E/DX2 =    0.0695          !
 ! A26   A(11,12,14)           112.6229         D2E/DX2 =    0.07            !
 ! A27   A(11,12,15)           112.5252         D2E/DX2 =    0.0699          !
 ! A28   A(13,12,14)           107.1624         D2E/DX2 =    0.0436          !
 ! A29   A(13,12,15)           107.3703         D2E/DX2 =    0.0434          !
 ! A30   A(14,12,15)           108.0643         D2E/DX2 =    0.0466          !
 ! A31   A(11,16,17)           111.0818         D2E/DX2 =    0.0686          !
 ! A32   A(11,16,18)           110.534          D2E/DX2 =    0.0705          !
 ! A33   A(11,16,19)           111.4798         D2E/DX2 =    0.0702          !
 ! A34   A(17,16,18)           107.674          D2E/DX2 =    0.0434          !
 ! A35   A(17,16,19)           108.2449         D2E/DX2 =    0.0445          !
 ! A36   A(18,16,19)           107.6743         D2E/DX2 =    0.044           !
 ! A37   A(11,20,21)           111.3123         D2E/DX2 =    0.0706          !
 ! A38   A(11,20,22)           110.5612         D2E/DX2 =    0.0702          !
 ! A39   A(11,20,23)           111.1919         D2E/DX2 =    0.068           !
 ! A40   A(21,20,22)           107.6929         D2E/DX2 =    0.0439          !
 ! A41   A(21,20,23)           108.2553         D2E/DX2 =    0.0445          !
 ! A42   A(22,20,23)           107.6775         D2E/DX2 =    0.0434          !
 ! A43   A(1,24,25)            110.9399         D2E/DX2 =    0.0849          !
 ! A44   A(1,24,26)            109.7681         D2E/DX2 =    0.0839          !
 ! A45   A(1,24,27)            113.9501         D2E/DX2 =    0.1064          !
 ! A46   A(25,24,26)           112.4191         D2E/DX2 =    0.0447          !
 ! A47   A(25,24,27)           104.8721         D2E/DX2 =    0.0539          !
 ! A48   A(26,24,27)           104.7205         D2E/DX2 =    0.0541          !
 ! D1    D(11,1,2,3)          -114.7156         D2E/DX2 =    0.0154          !
 ! D2    D(11,1,2,7)           116.4452         D2E/DX2 =    0.0151          !
 ! D3    D(24,1,2,3)            57.0234         D2E/DX2 =    0.0145          !
 ! D4    D(24,1,2,7)           -71.8158         D2E/DX2 =    0.0149          !
 ! D5    D(2,1,11,12)          179.0764         D2E/DX2 =    0.0079          !
 ! D6    D(2,1,11,16)          -61.3796         D2E/DX2 =    0.0078          !
 ! D7    D(2,1,11,20)           59.4535         D2E/DX2 =    0.0074          !
 ! D8    D(24,1,11,12)           8.0098         D2E/DX2 =    0.0068          !
 ! D9    D(24,1,11,16)         127.5537         D2E/DX2 =    0.0066          !
 ! D10   D(24,1,11,20)        -111.6131         D2E/DX2 =    0.0065          !
 ! D11   D(2,1,24,25)           27.531          D2E/DX2 =    0.013           !
 ! D12   D(2,1,24,26)          152.3821         D2E/DX2 =    0.0143          !
 ! D13   D(2,1,24,27)          -90.5471         D2E/DX2 =    0.0167          !
 ! D14   D(11,1,24,25)        -162.5067         D2E/DX2 =    0.0138          !
 ! D15   D(11,1,24,26)         -37.6556         D2E/DX2 =    0.0136          !
 ! D16   D(11,1,24,27)          79.4153         D2E/DX2 =    0.0156          !
 ! D17   D(1,2,3,4)             53.416          D2E/DX2 =    0.0206          !
 ! D18   D(1,2,3,5)            171.9858         D2E/DX2 =    0.0213          !
 ! D19   D(1,2,3,6)            -67.9807         D2E/DX2 =    0.0221          !
 ! D20   D(7,2,3,4)           -178.0778         D2E/DX2 =    0.0214          !
 ! D21   D(7,2,3,5)            -59.508          D2E/DX2 =    0.0202          !
 ! D22   D(7,2,3,6)             60.5254         D2E/DX2 =    0.0216          !
 ! D23   D(1,2,7,8)           -171.3578         D2E/DX2 =    0.0212          !
 ! D24   D(1,2,7,9)            -53.2032         D2E/DX2 =    0.0203          !
 ! D25   D(1,2,7,10)            68.4026         D2E/DX2 =    0.0217          !
 ! D26   D(3,2,7,8)             59.7253         D2E/DX2 =    0.0202          !
 ! D27   D(3,2,7,9)            177.88           D2E/DX2 =    0.0211          !
 ! D28   D(3,2,7,10)           -60.5143         D2E/DX2 =    0.0214          !
 ! D29   D(1,11,12,13)        -178.6664         D2E/DX2 =    0.0109          !
 ! D30   D(1,11,12,14)         -59.9889         D2E/DX2 =    0.0111          !
 ! D31   D(1,11,12,15)          62.4573         D2E/DX2 =    0.0111          !
 ! D32   D(16,11,12,13)         62.0634         D2E/DX2 =    0.0107          !
 ! D33   D(16,11,12,14)       -179.2591         D2E/DX2 =    0.0106          !
 ! D34   D(16,11,12,15)        -56.8129         D2E/DX2 =    0.0106          !
 ! D35   D(20,11,12,13)        -58.7155         D2E/DX2 =    0.0106          !
 ! D36   D(20,11,12,14)         59.962          D2E/DX2 =    0.0105          !
 ! D37   D(20,11,12,15)       -177.5918         D2E/DX2 =    0.0105          !
 ! D38   D(1,11,16,17)          58.9589         D2E/DX2 =    0.0117          !
 ! D39   D(1,11,16,18)         178.4211         D2E/DX2 =    0.0112          !
 ! D40   D(1,11,16,19)         -61.8567         D2E/DX2 =    0.0115          !
 ! D41   D(12,11,16,17)        177.4769         D2E/DX2 =    0.0111          !
 ! D42   D(12,11,16,18)        -63.0609         D2E/DX2 =    0.0111          !
 ! D43   D(12,11,16,19)         56.6612         D2E/DX2 =    0.0112          !
 ! D44   D(20,11,16,17)        -61.9671         D2E/DX2 =    0.0104          !
 ! D45   D(20,11,16,18)         57.4951         D2E/DX2 =    0.0104          !
 ! D46   D(20,11,16,19)        177.2172         D2E/DX2 =    0.0103          !
 ! D47   D(1,11,20,21)          61.6163         D2E/DX2 =    0.0115          !
 ! D48   D(1,11,20,22)        -178.7298         D2E/DX2 =    0.0111          !
 ! D49   D(1,11,20,23)         -59.1737         D2E/DX2 =    0.0116          !
 ! D50   D(12,11,20,21)        -57.1574         D2E/DX2 =    0.011           !
 ! D51   D(12,11,20,22)         62.4965         D2E/DX2 =    0.0109          !
 ! D52   D(12,11,20,23)       -177.9474         D2E/DX2 =    0.011           !
 ! D53   D(16,11,20,21)       -177.8735         D2E/DX2 =    0.0105          !
 ! D54   D(16,11,20,22)        -58.2196         D2E/DX2 =    0.0105          !
 ! D55   D(16,11,20,23)         61.3364         D2E/DX2 =    0.0105          !
 -----------------------------------------------------------------------------
 Trust Radius=3.00D-01 FncErr=1.00D-07 GrdErr=1.00D-06
 Number of steps in this run= 139 maximum allowed number of steps= 162.
 GradGradGradGradGradGradGradGradGradGradGradGradGradGradGradGradGradGrad

                          Input orientation:                          
 ---------------------------------------------------------------------
 Center     Atomic     Atomic              Coordinates (Angstroms)
 Number     Number      Type              X           Y           Z
 ---------------------------------------------------------------------
    1          7             0        0.050543    0.346718   -0.300500
    2          7             0        0.270480    1.658264    0.290347
    3          6             0       -0.701383    1.984577    1.331187
    4          1             0       -0.723405    1.186662    2.073321
    5          1             0       -0.388489    2.910325    1.821040
    6          1             0       -1.723783    2.131898    0.945597
    7          6             0        0.390011    2.705546   -0.721336
    8          1             0        0.705477    3.628818   -0.227968
    9          1             0        1.153571    2.421351   -1.445619
   10          1             0       -0.549879    2.907350   -1.258494
   11         14             0        1.440301   -0.694022    0.100812
   12          6             0        1.132148   -2.398980   -0.645003
   13          1             0        1.969301   -3.055299   -0.384596
   14          1             0        0.222219   -2.868355   -0.260163
   15          1             0        1.064880   -2.372990   -1.735804
   16          6             0        3.008398    0.048455   -0.631037
   17          1             0        3.182991    1.056262   -0.245980
   18          1             0        3.879648   -0.562024   -0.371815
   19          1             0        2.954133    0.103375   -1.722288
   20          6             0        1.614718   -0.846337    1.969516
   21          1             0        0.729953   -1.310393    2.414871
   22          1             0        2.480253   -1.466232    2.225725
   23          1             0        1.758387    0.132454    2.433977
   24         14             0       -1.451022   -0.095292   -1.041615
   25          1             0       -2.147934    1.093292   -1.571296
   26          1             0       -1.213951   -1.116297   -2.077984
   27         17             0       -2.830223   -0.986132    0.282932
 ---------------------------------------------------------------------
                    Distance matrix (angstroms):
                    1          2          3          4          5
     1  N    0.000000
     2  N    1.455206   0.000000
     3  C    2.431126   1.460940   0.000000
     4  H    2.634299   2.095046   1.089916   0.000000
     5  H    3.356450   2.084447   1.093100   1.773930   0.000000
     6  H    2.808533   2.151922   1.102581   1.779322   1.776333
     7  C    2.420002   1.461023   2.433883   3.369987   2.666772
     8  H    3.347592   2.083495   2.667161   3.647158   2.431343
     9  H    2.613823   2.091824   3.367830   4.174978   3.645285
    10  H    2.799124   2.152234   2.753345   3.753914   3.083761
    11  Si   1.782026   2.633943   3.643559   3.479855   4.392604
    12  C    2.971096   4.251891   5.146138   4.867154   6.048340
    13  H    3.906716   5.055613   5.956242   5.593412   6.783264
    14  H    3.219907   4.560227   5.190028   4.773104   6.172318
    15  H    3.238177   4.581197   5.613778   5.511671   6.532751
    16  C    2.991174   3.307057   4.621836   4.747149   5.073640
    17  H    3.212266   3.022047   4.293900   4.544897   4.523890
    18  H    3.936107   4.288849   5.511011   5.497699   5.923074
    19  H    3.242149   3.697347   5.121077   5.394854   5.622034
    20  C    3.003830   3.301455   3.712931   3.100109   4.259975
    21  H    3.252823   3.679354   3.752322   2.909328   4.406587
    22  H    3.946148   4.288503   4.778188   4.162270   5.248590
    23  H    3.231100   3.022766   3.270623   2.720426   3.563893
    24  Si   1.731856   2.795112   3.243147   3.446108   4.284566
    25  H    2.646809   3.103810   3.363229   3.914235   4.231454
    26  H    2.626558   3.938364   4.636873   4.772587   5.665462
    27  Cl   3.227336   4.075199   3.802093   3.516419   4.848734
                    6          7          8          9         10
     6  H    0.000000
     7  C    2.752428   0.000000
     8  H    3.085341   1.093326   0.000000
     9  H    3.752448   1.090128   1.772410   0.000000
    10  H    2.614841   1.101206   1.777194   1.781279   0.000000
    11  Si   4.325611   3.651863   4.397159   3.489873   4.333407
    12  C    5.587057   5.158758   6.057252   4.886413   5.600243
    13  H    6.505021   5.982883   6.804352   5.637809   6.531704
    14  H    5.499392   5.595464   6.515200   5.500338   5.911986
    15  H    5.938061   5.222655   6.198745   4.803934   5.542316
    16  C    5.405557   3.731520   4.276085   3.120026   4.607420
    17  H    5.162681   3.278237   3.571615   2.724178   4.287893
    18  H    6.355409   4.793407   5.259202   4.181516   5.695917
    19  H    5.754600   3.787866   4.440517   2.948149   4.511705
    20  C    4.589540   4.621305   5.067806   4.749062   5.403304
    21  H    4.475372   5.106772   5.601874   5.385977   5.737677
    22  H    5.679716   5.518878   5.927053   5.509278   6.360007
    23  H    4.282354   4.295260   4.518753   4.544901   5.163573
    24  Si   2.997297   3.366998   4.379670   3.644258   3.142444
    25  H    2.755605   3.124574   4.046651   3.560825   2.437711
    26  H    4.466849   4.361155   5.442690   4.303487   4.159602
    27  Cl   3.374232   5.000695   5.836091   5.519914   4.768141
                   11         12         13         14         15
    11  Si   0.000000
    12  C    1.886287   0.000000
    13  H    2.468013   1.095168   0.000000
    14  H    2.518283   1.093794   1.761456   0.000000
    15  H    2.516552   1.093182   1.763317   1.770023   0.000000
    16  C    1.883031   3.083901   3.282339   4.050694   3.295629
    17  H    2.494139   4.037805   4.289195   4.916197   4.297178
    18  H    2.488216   3.316293   3.141021   4.325323   3.614275
    19  H    2.500245   3.277492   3.568828   4.293291   3.114778
    20  C    1.882996   3.078845   3.247628   3.316486   4.045045
    21  H    2.497874   3.272555   3.523875   3.137013   4.297603
    22  H    2.488586   3.305826   3.098383   3.639273   4.303394
    23  H    2.495576   4.034904   4.260353   4.315444   4.913784
    24  Si   3.165970   3.483826   4.570769   3.331708   3.464039
    25  H    4.343486   4.879848   5.964117   4.799098   4.729096
    26  H    3.459844   3.033627   4.093946   2.904612   2.624774
    27  Cl   4.284375   4.307852   5.269011   3.626998   4.601141
                   16         17         18         19         20
    16  C    0.000000
    17  H    1.092898   0.000000
    18  H    1.094969   1.766357   0.000000
    19  H    1.093978   1.771964   1.767232   0.000000
    20  C    3.083160   3.314782   3.269950   4.040470   0.000000
    21  H    4.039225   4.324185   4.271563   4.905283   1.093845
    22  H    3.276325   3.600853   3.085954   4.274931   1.095018
    23  H    3.311178   3.172552   3.585320   4.324950   1.092884
    24  Si   4.480587   4.840784   5.392821   4.461858   4.362309
    25  H    5.344486   5.493323   6.364792   5.199407   5.518791
    26  H    4.612866   5.235394   5.400277   4.357413   4.945352
    27  Cl   5.999600   6.372586   6.755067   6.218256   4.756217
                   21         22         23         24         25
    21  H    0.000000
    22  H    1.767374   0.000000
    23  H    1.771961   1.766424   0.000000
    24  Si   4.263851   5.292439   4.736234   0.000000
    25  H    5.472611   6.510656   5.676686   1.476137   0.000000
    26  H    4.899203   5.682562   5.545446   1.474012   2.451803
    27  Cl   4.162351   5.675041   5.189756   2.109554   2.868394
                   26         27
    26  H    0.000000
    27  Cl   2.864123   0.000000
 Stoichiometry    C5H17ClN2Si2
 Framework group  C1[X(C5H17ClN2Si2)]
 Deg. of freedom   75
 Full point group                 C1      NOp   1
 Largest Abelian subgroup         C1      NOp   1
 Largest concise Abelian subgroup C1      NOp   1
                         Standard orientation:                         
 ---------------------------------------------------------------------
 Center     Atomic     Atomic              Coordinates (Angstroms)
 Number     Number      Type              X           Y           Z
 ---------------------------------------------------------------------
    1          7             0        0.034206    0.337884   -0.312622
    2          7             0        0.254530    1.670302    0.229359
    3          6             0       -0.684257    2.014612    1.294477
    4          1             0       -0.666934    1.239989    2.061012
    5          1             0       -0.368590    2.959677    1.744005
    6          1             0       -1.722078    2.134817    0.942110
    7          6             0        0.320994    2.687171   -0.817612
    8          1             0        0.639397    3.629908   -0.364591
    9          1             0        1.062373    2.391767   -1.560223
   10          1             0       -0.640699    2.858311   -1.326054
   11         14             0        1.453780   -0.669328    0.069412
   12          6             0        1.145944   -2.401051   -0.612094
   13          1             0        2.002195   -3.036574   -0.362419
   14          1             0        0.257991   -2.871502   -0.180121
   15          1             0        1.039039   -2.410076   -1.699999
   16          6             0        2.982583    0.072903   -0.741552
   17          1             0        3.154985    1.094680   -0.394168
   18          1             0        3.872138   -0.516344   -0.495709
   19          1             0        2.888198    0.092967   -1.831266
   20          6             0        1.697759   -0.760723    1.934297
   21          1             0        0.837046   -1.223602    2.425637
   22          1             0        2.581643   -1.359558    2.177627
   23          1             0        1.842579    0.234077    2.363012
   24         14             0       -1.485902   -0.149010   -0.984581
   25          1             0       -2.220125    1.012123   -1.524642
   26          1             0       -1.270204   -1.198244   -1.997150
   27         17             0       -2.802268   -1.018262    0.416061
 ---------------------------------------------------------------------
 Rotational constants (GHZ):      0.9446039      0.6448811      0.5077209
 Isotopes: N-14,N-14,C-12,H-1,H-1,H-1,C-12,H-1,H-1,H-1,Si-28,C-12,H-1,H-1,H-1,C-1
 2,H-1,H-1,H-1,C-12,H-1,H-1,H-1,Si-28,H-1,H-1,Cl-35
 Standard basis: 6-311++G(d,p) (5D, 7F)
 There are   363 symmetry adapted basis functions of A   symmetry.
 Crude estimate of integral set expansion from redundant integrals=1.000.
 Integral buffers will be    262144 words long.
 Raffenetti 2 integral format.
 Two-electron integral symmetry is turned on.
   363 basis functions      558 primitive gaussians
    53 alpha electrons       53 beta electrons
       nuclear repulsion energy       899.3065886953 Hartrees.
 One-electron integrals computed using PRISM.
 NBasis=   363 RedAO= T  NBF=   363
 NBsUse=   363 1.00D-04 NBFU=   363
 Initial guess read from the checkpoint file:
 /scr/Thomas/clsnsn1.chk
 Requested convergence on RMS density matrix=1.00D-08 within  64 cycles.
 Requested convergence on MAX density matrix=1.00D-06.
 SCF Done:  E(RB+HF-PW91) =  -1349.44652912     A.U. after   12 cycles
             Convg  =    0.1367D-08             -V/T =  2.0028
             S**2   =   0.0000

 **********************************************************************

            Population analysis using the SCF density.

 **********************************************************************

 Alpha  occ. eigenvalues -- -101.51088 -66.12048 -66.07776 -14.34483 -14.31275
 Alpha  occ. eigenvalues --  -10.18456 -10.18423 -10.13921 -10.13623 -10.13431
 Alpha  occ. eigenvalues --   -9.44721  -7.20559  -7.19972  -7.19954  -5.31051
 Alpha  occ. eigenvalues --   -5.26862  -3.66661  -3.66414  -3.66349  -3.62430
 Alpha  occ. eigenvalues --   -3.62244  -3.62186  -0.97604  -0.81823  -0.79757
 Alpha  occ. eigenvalues --   -0.72287  -0.71744  -0.68676  -0.68331  -0.62643
 Alpha  occ. eigenvalues --   -0.54904  -0.50827  -0.47267  -0.46910  -0.45172
 Alpha  occ. eigenvalues --   -0.42198  -0.41597  -0.41364  -0.40754  -0.40597
 Alpha  occ. eigenvalues --   -0.39634  -0.39516  -0.38572  -0.38258  -0.37840
 Alpha  occ. eigenvalues --   -0.37562  -0.35494  -0.32300  -0.31598  -0.30816
 Alpha  occ. eigenvalues --   -0.30718  -0.25958  -0.23224
 Alpha virt. eigenvalues --   -0.00634   0.00273   0.00809   0.01466   0.01862
 Alpha virt. eigenvalues --    0.02411   0.02813   0.03509   0.03573   0.03858
 Alpha virt. eigenvalues --    0.04754   0.05402   0.05708   0.06334   0.06464
 Alpha virt. eigenvalues --    0.06637   0.06849   0.07366   0.07626   0.08353
 Alpha virt. eigenvalues --    0.09164   0.09555   0.09906   0.10239   0.10269
 Alpha virt. eigenvalues --    0.10390   0.10509   0.10715   0.11141   0.11647
 Alpha virt. eigenvalues --    0.12232   0.12533   0.12652   0.13408   0.13521
 Alpha virt. eigenvalues --    0.14222   0.14611   0.14948   0.15036   0.15351
 Alpha virt. eigenvalues --    0.15570   0.15708   0.16141   0.16477   0.16545
 Alpha virt. eigenvalues --    0.17190   0.17280   0.17603   0.17957   0.18106
 Alpha virt. eigenvalues --    0.18286   0.18666   0.18852   0.19107   0.19615
 Alpha virt. eigenvalues --    0.20081   0.20425   0.20741   0.21016   0.21638
 Alpha virt. eigenvalues --    0.21930   0.23130   0.23504   0.23908   0.23998
 Alpha virt. eigenvalues --    0.24650   0.25665   0.25984   0.26262   0.27088
 Alpha virt. eigenvalues --    0.28405   0.29437   0.29703   0.30449   0.31041
 Alpha virt. eigenvalues --    0.31685   0.33141   0.33405   0.34406   0.34552
 Alpha virt. eigenvalues --    0.35038   0.35345   0.36198   0.36670   0.38177
 Alpha virt. eigenvalues --    0.38792   0.40409   0.42363   0.43465   0.44197
 Alpha virt. eigenvalues --    0.47325   0.48614   0.49379   0.50784   0.51403
 Alpha virt. eigenvalues --    0.52301   0.53834   0.54426   0.55121   0.56487
 Alpha virt. eigenvalues --    0.57743   0.57933   0.58181   0.59023   0.59457
 Alpha virt. eigenvalues --    0.59910   0.60564   0.61975   0.62341   0.63139
 Alpha virt. eigenvalues --    0.63673   0.65465   0.66176   0.67058   0.67682
 Alpha virt. eigenvalues --    0.68575   0.69173   0.70436   0.71204   0.72097
 Alpha virt. eigenvalues --    0.72926   0.73407   0.73726   0.74706   0.74889
 Alpha virt. eigenvalues --    0.76114   0.77877   0.78552   0.79727   0.81216
 Alpha virt. eigenvalues --    0.82277   0.84799   0.85536   0.86753   0.87701
 Alpha virt. eigenvalues --    0.88231   0.90118   0.90786   0.91309   0.92800
 Alpha virt. eigenvalues --    0.93547   0.94668   0.94834   0.95476   0.96120
 Alpha virt. eigenvalues --    0.97055   0.98403   0.98964   1.03640   1.04498
 Alpha virt. eigenvalues --    1.05515   1.07528   1.11908   1.13338   1.17136
 Alpha virt. eigenvalues --    1.18014   1.21176   1.22562   1.24232   1.24944
 Alpha virt. eigenvalues --    1.29381   1.30176   1.31483   1.33613   1.36575
 Alpha virt. eigenvalues --    1.38508   1.42373   1.44594   1.45703   1.46298
 Alpha virt. eigenvalues --    1.47054   1.48196   1.49063   1.49927   1.50390
 Alpha virt. eigenvalues --    1.54951   1.56053   1.57352   1.57838   1.58997
 Alpha virt. eigenvalues --    1.59613   1.60286   1.61053   1.62259   1.62603
 Alpha virt. eigenvalues --    1.63917   1.64478   1.65871   1.65921   1.67213
 Alpha virt. eigenvalues --    1.67786   1.69060   1.70084   1.72711   1.73018
 Alpha virt. eigenvalues --    1.73528   1.75064   1.76699   1.80898   1.82414
 Alpha virt. eigenvalues --    1.82578   1.83500   1.84060   1.85441   1.86013
 Alpha virt. eigenvalues --    1.94057   1.97039   1.98535   2.03966   2.05008
 Alpha virt. eigenvalues --    2.05637   2.06922   2.07935   2.11504   2.12837
 Alpha virt. eigenvalues --    2.15916   2.16576   2.18528   2.19133   2.20667
 Alpha virt. eigenvalues --    2.21760   2.25187   2.25839   2.26695   2.29815
 Alpha virt. eigenvalues --    2.32253   2.34910   2.36079   2.44284   2.44427
 Alpha virt. eigenvalues --    2.46797   2.47578   2.48548   2.49439   2.49506
 Alpha virt. eigenvalues --    2.50895   2.52311   2.53290   2.53465   2.53885
 Alpha virt. eigenvalues --    2.54442   2.55199   2.56683   2.58451   2.59775
 Alpha virt. eigenvalues --    2.60096   2.61167   2.63056   2.64843   2.65986
 Alpha virt. eigenvalues --    2.68122   2.69271   2.69526   2.71401   2.73364
 Alpha virt. eigenvalues --    2.73467   2.75322   2.77325   2.78565   2.82384
 Alpha virt. eigenvalues --    2.86330   2.89396   2.97834   3.01917   3.03185
 Alpha virt. eigenvalues --    3.08528   3.15400   3.16758   3.32367   3.35306
 Alpha virt. eigenvalues --    3.51736   3.64587   3.74823   3.75345   3.75515
 Alpha virt. eigenvalues --    3.75956   3.76944   3.78802   3.79389   3.79633
 Alpha virt. eigenvalues --    3.80371   3.84667   3.97665   4.01930   4.11844
 Alpha virt. eigenvalues --    4.30842   4.85365   4.96667   5.77097   5.90749
 Alpha virt. eigenvalues --    9.78161  11.40234  11.49126  11.52906  11.55428
 Alpha virt. eigenvalues --   11.57112  11.58482  23.97339  23.97834  23.99880
 Alpha virt. eigenvalues --   24.00151  24.02067  26.04541  26.05948  26.36646
 Alpha virt. eigenvalues --   35.48859  35.51635 141.27448 141.39068 215.80160
          Condensed to atoms (all electrons):
              1          2          3          4          5          6
  1  N    8.800441  -1.111072  -0.076920   0.078484   0.030287  -0.016668
  2  N   -1.111072   8.409663   0.184641  -0.116912  -0.076049  -0.072645
  3  C   -0.076920   0.184641   5.504438   0.396821   0.389303   0.398013
  4  H    0.078484  -0.116912   0.396821   0.522897  -0.014962  -0.031256
  5  H    0.030287  -0.076049   0.389303  -0.014962   0.541607  -0.046978
  6  H   -0.016668  -0.072645   0.398013  -0.031256  -0.046978   0.559521
  7  C   -0.034874   0.210229  -0.209081   0.000907  -0.001215  -0.025228
  8  H    0.009489  -0.060247   0.003333   0.002775  -0.000068   0.001120
  9  H    0.046175  -0.090945   0.000967  -0.001468   0.000119  -0.000162
 10  H   -0.008155  -0.091548  -0.009637  -0.005432   0.003124   0.015185
 11  Si   0.368696   0.079453  -0.028853  -0.005505   0.005474   0.005218
 12  C    0.007416  -0.103418  -0.011578   0.006394  -0.000806  -0.002913
 13  H    0.027612  -0.012025  -0.000557   0.000187   0.000097  -0.000380
 14  H   -0.023189  -0.004271   0.000816   0.000266  -0.000607   0.000017
 15  H    0.001232  -0.001027   0.001144   0.000046   0.000124   0.000549
 16  C   -0.244248   0.048842   0.028644   0.002734  -0.000013   0.006808
 17  H   -0.009265   0.016408  -0.003131   0.000640   0.000035   0.000999
 18  H    0.016777  -0.003563   0.001410   0.001631  -0.000475   0.000414
 19  H    0.003009  -0.014149  -0.002259  -0.000021  -0.000010  -0.000312
 20  C   -0.287938   0.084249  -0.003406  -0.021870  -0.002432  -0.014628
 21  H    0.013106  -0.025687   0.010762   0.004673  -0.001288   0.000886
 22  H    0.008365   0.001782   0.001887  -0.002891   0.000311  -0.000505
 23  H   -0.009001   0.011613  -0.012186   0.005053  -0.001802   0.000211
 24  Si  -0.145192  -0.106455  -0.045893  -0.024812   0.015430   0.047293
 25  H   -0.088020   0.088984   0.026411   0.003841  -0.007563   0.010632
 26  H    0.039945  -0.043841  -0.016133   0.005486   0.000805  -0.005615
 27  Cl  -0.013290  -0.058141   0.000332   0.026999  -0.002583  -0.018866
              7          8          9         10         11         12
  1  N   -0.034874   0.009489   0.046175  -0.008155   0.368696   0.007416
  2  N    0.210229  -0.060247  -0.090945  -0.091548   0.079453  -0.103418
  3  C   -0.209081   0.003333   0.000967  -0.009637  -0.028853  -0.011578
  4  H    0.000907   0.002775  -0.001468  -0.005432  -0.005505   0.006394
  5  H   -0.001215  -0.000068   0.000119   0.003124   0.005474  -0.000806
  6  H   -0.025228   0.001120  -0.000162   0.015185   0.005218  -0.002913
  7  C    5.403790   0.401342   0.412909   0.393644  -0.005445   0.003815
  8  H    0.401342   0.543540  -0.012471  -0.050616  -0.006320   0.000259
  9  H    0.412909  -0.012471   0.518908  -0.049077  -0.006579   0.006523
 10  H    0.393644  -0.050616  -0.049077   0.630330   0.014010   0.002255
 11  Si  -0.005445  -0.006320  -0.006579   0.014010  14.164964   0.077992
 12  C    0.003815   0.000259   0.006523   0.002255   0.077992   6.098379
 13  H    0.000337  -0.000154   0.000593   0.000222  -0.058695   0.366790
 14  H    0.000907   0.000189  -0.001164  -0.000147  -0.057553   0.364044
 15  H   -0.001655  -0.000014   0.001251  -0.001150  -0.117155   0.374546
 16  C   -0.040899   0.002076   0.002565  -0.018131  -0.072716  -0.303330
 17  H   -0.012539  -0.002613   0.003306   0.001314  -0.051126   0.009279
 18  H   -0.001179   0.000717  -0.000020  -0.000856  -0.059815  -0.003745
 19  H    0.007598   0.000395  -0.006101   0.000241  -0.093350  -0.002227
 20  C    0.049966   0.000188  -0.000918   0.009147  -0.335044  -0.091020
 21  H   -0.003240   0.000731   0.000621  -0.001119  -0.113825   0.003736
 22  H    0.002681  -0.000311  -0.000178   0.000668  -0.035743  -0.000922
 23  H   -0.003260  -0.000527   0.000345   0.000948  -0.068009   0.014640
 24  Si  -0.101552  -0.011307  -0.002751   0.044495  -0.059370  -0.150340
 25  H   -0.032184   0.007729  -0.008237  -0.021227   0.007258  -0.020649
 26  H    0.010701  -0.001022   0.005415  -0.001030  -0.010914   0.017453
 27  Cl   0.012323   0.001315   0.001873  -0.002284  -0.054706   0.031092
             13         14         15         16         17         18
  1  N    0.027612  -0.023189   0.001232  -0.244248  -0.009265   0.016777
  2  N   -0.012025  -0.004271  -0.001027   0.048842   0.016408  -0.003563
  3  C   -0.000557   0.000816   0.001144   0.028644  -0.003131   0.001410
  4  H    0.000187   0.000266   0.000046   0.002734   0.000640   0.001631
  5  H    0.000097  -0.000607   0.000124  -0.000013   0.000035  -0.000475
  6  H   -0.000380   0.000017   0.000549   0.006808   0.000999   0.000414
  7  C    0.000337   0.000907  -0.001655  -0.040899  -0.012539  -0.001179
  8  H   -0.000154   0.000189  -0.000014   0.002076  -0.002613   0.000717
  9  H    0.000593  -0.001164   0.001251   0.002565   0.003306  -0.000020
 10  H    0.000222  -0.000147  -0.001150  -0.018131   0.001314  -0.000856
 11  Si  -0.058695  -0.057553  -0.117155  -0.072716  -0.051126  -0.059815
 12  C    0.366790   0.364044   0.374546  -0.303330   0.009279  -0.003745
 13  H    0.523997  -0.032858  -0.018862  -0.019856   0.000872  -0.005306
 14  H   -0.032858   0.526979  -0.027289   0.025336  -0.003093   0.002640
 15  H   -0.018862  -0.027289   0.530690   0.007706   0.000939   0.005988
 16  C   -0.019856   0.025336   0.007706   6.368942   0.372988   0.360380
 17  H    0.000872  -0.003093   0.000939   0.372988   0.514154  -0.030266
 18  H   -0.005306   0.002640   0.005988   0.360380  -0.030266   0.534959
 19  H    0.004543   0.002371  -0.002624   0.385052  -0.028058  -0.021230
 20  C    0.001641  -0.019439   0.012893  -0.260796   0.000850  -0.015418
 21  H    0.004110  -0.004372   0.002737   0.018881   0.001162   0.003528
 22  H   -0.004664   0.005359  -0.000123  -0.021681   0.004243  -0.010168
 23  H    0.001086  -0.000021  -0.003034   0.001221   0.000040   0.004805
 24  Si  -0.013643   0.040585   0.037914   0.134864   0.001865   0.007719
 25  H   -0.002016   0.009141   0.002643   0.017820  -0.001244   0.002051
 26  H    0.006166  -0.023361   0.001945  -0.014666   0.001152  -0.001538
 27  Cl   0.001746   0.005746  -0.006419  -0.017554  -0.000188   0.000016
             19         20         21         22         23         24
  1  N    0.003009  -0.287938   0.013106   0.008365  -0.009001  -0.145192
  2  N   -0.014149   0.084249  -0.025687   0.001782   0.011613  -0.106455
  3  C   -0.002259  -0.003406   0.010762   0.001887  -0.012186  -0.045893
  4  H   -0.000021  -0.021870   0.004673  -0.002891   0.005053  -0.024812
  5  H   -0.000010  -0.002432  -0.001288   0.000311  -0.001802   0.015430
  6  H   -0.000312  -0.014628   0.000886  -0.000505   0.000211   0.047293
  7  C    0.007598   0.049966  -0.003240   0.002681  -0.003260  -0.101552
  8  H    0.000395   0.000188   0.000731  -0.000311  -0.000527  -0.011307
  9  H   -0.006101  -0.000918   0.000621  -0.000178   0.000345  -0.002751
 10  H    0.000241   0.009147  -0.001119   0.000668   0.000948   0.044495
 11  Si  -0.093350  -0.335044  -0.113825  -0.035743  -0.068009  -0.059370
 12  C   -0.002227  -0.091020   0.003736  -0.000922   0.014640  -0.150340
 13  H    0.004543   0.001641   0.004110  -0.004664   0.001086  -0.013643
 14  H    0.002371  -0.019439  -0.004372   0.005359  -0.000021   0.040585
 15  H   -0.002624   0.012893   0.002737  -0.000123  -0.003034   0.037914
 16  C    0.385052  -0.260796   0.018881  -0.021681   0.001221   0.134864
 17  H   -0.028058   0.000850   0.001162   0.004243   0.000040   0.001865
 18  H   -0.021230  -0.015418   0.003528  -0.010168   0.004805   0.007719
 19  H    0.537533   0.016862  -0.003535   0.001563   0.000180   0.007850
 20  C    0.016862   6.562503   0.373473   0.368932   0.387099  -0.160168
 21  H   -0.003535   0.373473   0.534762  -0.029516  -0.020486  -0.011719
 22  H    0.001563   0.368932  -0.029516   0.537238  -0.033940  -0.003725
 23  H    0.000180   0.387099  -0.020486  -0.033940   0.515482  -0.002830
 24  Si   0.007850  -0.160168  -0.011719  -0.003725  -0.002830  13.505564
 25  H    0.000225  -0.009427   0.002599  -0.000558  -0.001753   0.256781
 26  H   -0.001672   0.017068   0.000785  -0.000115   0.002088   0.296983
 27  Cl  -0.000900   0.032299   0.013841  -0.000254   0.001480   0.228396
             25         26         27
  1  N   -0.088020   0.039945  -0.013290
  2  N    0.088984  -0.043841  -0.058141
  3  C    0.026411  -0.016133   0.000332
  4  H    0.003841   0.005486   0.026999
  5  H   -0.007563   0.000805  -0.002583
  6  H    0.010632  -0.005615  -0.018866
  7  C   -0.032184   0.010701   0.012323
  8  H    0.007729  -0.001022   0.001315
  9  H   -0.008237   0.005415   0.001873
 10  H   -0.021227  -0.001030  -0.002284
 11  Si   0.007258  -0.010914  -0.054706
 12  C   -0.020649   0.017453   0.031092
 13  H   -0.002016   0.006166   0.001746
 14  H    0.009141  -0.023361   0.005746
 15  H    0.002643   0.001945  -0.006419
 16  C    0.017820  -0.014666  -0.017554
 17  H   -0.001244   0.001152  -0.000188
 18  H    0.002051  -0.001538   0.000016
 19  H    0.000225  -0.001672  -0.000900
 20  C   -0.009427   0.017068   0.032299
 21  H    0.002599   0.000785   0.013841
 22  H   -0.000558  -0.000115  -0.000254
 23  H   -0.001753   0.002088   0.001480
 24  Si   0.256781   0.296983   0.228396
 25  H    0.970832  -0.120257  -0.083785
 26  H   -0.120257   0.859944  -0.028367
 27  Cl  -0.083785  -0.028367  16.935235
 Total atomic charges:
              1
  1  N   -0.383203
  2  N   -0.143868
  3  C   -0.529288
  4  H    0.165294
  5  H    0.170136
  6  H    0.189290
  7  C   -0.438801
  8  H    0.170471
  9  H    0.178503
 10  H    0.144827
 11  Si   0.517657
 12  C   -0.693664
 13  H    0.229016
 14  H    0.212970
 15  H    0.197007
 16  C   -0.770970
 17  H    0.211279
 18  H    0.210543
 19  H    0.209026
 20  C   -0.694670
 21  H    0.224393
 22  H    0.212265
 23  H    0.210556
 24  Si   0.214018
 25  H   -0.010027
 26  H    0.002596
 27  Cl  -0.005357
 Sum of Mulliken charges=   0.00000
 Atomic charges with hydrogens summed into heavy atoms:
              1
  1  N   -0.383203
  2  N   -0.143868
  3  C   -0.004568
  4  H    0.000000
  5  H    0.000000
  6  H    0.000000
  7  C    0.055000
  8  H    0.000000
  9  H    0.000000
 10  H    0.000000
 11  Si   0.517657
 12  C   -0.054670
 13  H    0.000000
 14  H    0.000000
 15  H    0.000000
 16  C   -0.140122
 17  H    0.000000
 18  H    0.000000
 19  H    0.000000
 20  C   -0.047456
 21  H    0.000000
 22  H    0.000000
 23  H    0.000000
 24  Si   0.206588
 25  H    0.000000
 26  H    0.000000
 27  Cl  -0.005357
 Sum of Mulliken charges=   0.00000
 Electronic spatial extent (au):  <R**2>=  2557.9752
 Charge=     0.0000 electrons
 Dipole moment (Debye):
    X=     1.7593    Y=     1.5250    Z=    -0.6803  Tot=     2.4256
 Quadrupole moment (Debye-Ang):
   XX=   -92.4670   YY=   -82.9713   ZZ=   -85.1998
   XY=    -4.3157   XZ=     1.2449   YZ=     0.5944
 Octapole moment (Debye-Ang**2):
  XXX=    14.6641  YYY=    18.3223  ZZZ=     1.0334  XYY=     3.3217
  XXY=     2.2449  XXZ=    -0.9463  XZZ=    -5.2027  YZZ=     3.4159
  YYZ=     5.1498  XYZ=    -2.3706
 Hexadecapole moment (Debye-Ang**3):
 XXXX= -1814.8518 YYYY= -1163.1333 ZZZZ=  -617.6378 XXXY=   -27.6534
 XXXZ=    11.4701 YYYX=    14.3820 YYYZ=    -0.3260 ZZZX=   -20.5244
 ZZZY=     5.1391 XXYY=  -489.8306 XXZZ=  -396.2688 YYZZ=  -297.1294
 XXYZ=    -2.1227 YYXZ=    -3.9691 ZZXY=     7.0094
 N-N= 8.993065886953D+02 E-N=-4.992712053250D+03  KE= 1.345674454717D+03
 ***** Axes restored to original set *****
 -------------------------------------------------------------------
 Center     Atomic                   Forces (Hartrees/Bohr)
 Number     Number              X              Y              Z
 -------------------------------------------------------------------
    1          7           0.000438637    0.004823984    0.001800060
    2          7          -0.001411034   -0.002280300   -0.001494318
    3          6           0.002181115   -0.001219303   -0.003783862
    4          1           0.000193729   -0.000526717    0.000119546
    5          1           0.000267985    0.000298371    0.000050955
    6          1          -0.000346800   -0.000072746   -0.000355057
    7          6          -0.001222217   -0.003427205    0.002624711
    8          1           0.000104320    0.000157184    0.000331767
    9          1           0.000321525   -0.000370133   -0.000135960
   10          1          -0.000387819   -0.000061310   -0.000110223
   11         14          -0.000237087    0.000442676    0.000208505
   12          6          -0.000118094    0.001556650    0.000444877
   13          1           0.000238528    0.000042704    0.000151460
   14          1          -0.000288647    0.000044278    0.000233369
   15          1           0.000055778    0.000169282   -0.000275370
   16          6          -0.001307450   -0.000519251    0.000356237
   17          1          -0.000156260    0.000236798    0.000279542
   18          1           0.000016802   -0.000209276    0.000156267
   19          1          -0.000166999   -0.000088321   -0.000175605
   20          6          -0.000302461    0.000095460   -0.001436414
   21          1          -0.000241591   -0.000118709   -0.000118393
   22          1           0.000197927   -0.000101528   -0.000144612
   23          1           0.000062792    0.000372269   -0.000125283
   24         14           0.000296285   -0.000976930    0.004865486
   25          1          -0.000664913    0.001215559   -0.000419972
   26          1           0.000235131   -0.000983271   -0.000894484
   27         17           0.002240815    0.001499784   -0.002153229
 -------------------------------------------------------------------
 Cartesian Forces:  Max     0.004865486 RMS     0.001251228

 GradGradGradGradGradGradGradGradGradGradGradGradGradGradGradGradGradGrad
 Berny optimization.
 Internal  Forces:  Max     0.007934306 RMS     0.001097830
 Search for a local minimum.
 Step number   1 out of a maximum of 139
 All quantities printed in internal units (Hartrees-Bohrs-Radians)
 Second derivative matrix not updated -- first step.
     Eigenvalues ---    0.00111   0.00142   0.00159   0.00288   0.00417
     Eigenvalues ---    0.00464   0.00504   0.00922   0.01672   0.02355
     Eigenvalues ---    0.02460   0.02842   0.02943   0.03290   0.03365
     Eigenvalues ---    0.03409   0.03974   0.04253   0.04332   0.05213
     Eigenvalues ---    0.06074   0.06111   0.06148   0.06179   0.06689
     Eigenvalues ---    0.07003   0.07228   0.09649   0.10130   0.10159
     Eigenvalues ---    0.10222   0.10311   0.10504   0.10751   0.11409
     Eigenvalues ---    0.11615   0.12483   0.12518   0.12596   0.13054
     Eigenvalues ---    0.13492   0.14286   0.14918   0.15546   0.15695
     Eigenvalues ---    0.15841   0.17002   0.17247   0.18198   0.18361
     Eigenvalues ---    0.18773   0.19188   0.19320   0.19462   0.21837
     Eigenvalues ---    0.24495   0.26885   0.30557   0.30839   0.32643
     Eigenvalues ---    0.32973   0.33110   0.33116   0.33236   0.33363
     Eigenvalues ---    0.33449   0.33471   0.33599   0.33758   0.34050
     Eigenvalues ---    0.34064   0.34100   0.34625   0.34886   0.36182
     Eigenvalues --- 1000.000001000.000001000.000001000.000001000.00000
     Eigenvalues --- 1000.000001000.000001000.000001000.000001000.00000
     Eigenvalues --- 1000.000001000.000001000.000001000.000001000.00000
     Eigenvalues --- 1000.000001000.000001000.000001000.000001000.00000
     Eigenvalues --- 1000.000001000.000001000.000001000.000001000.00000
     Eigenvalues --- 1000.000001000.000001000.000001000.000001000.00000
     Eigenvalues --- 1000.000001000.000001000.000001000.000001000.00000
     Eigenvalues --- 1000.000001000.000001000.000001000.000001000.00000
     Eigenvalues --- 1000.000001000.000001000.000001000.000001000.00000
     Eigenvalues --- 1000.000001000.000001000.000001000.000001000.00000
     Eigenvalues --- 1000.000001000.000001000.000001000.00000
 RFO step:  Lambda=-5.56859932D-04.
 Linear search not attempted -- first point.
 Iteration  1 RMS(Cart)=  0.01297967 RMS(Int)=  0.00003711
 Iteration  2 RMS(Cart)=  0.00006087 RMS(Int)=  0.00000785
 Iteration  3 RMS(Cart)=  0.00000000 RMS(Int)=  0.00000785
 Variable       Old X    -DE/DX   Delta X   Delta X   Delta X     New X
                                 (Linear)    (Quad)   (Total)
    R1        2.74994  -0.00793   0.00000  -0.02366  -0.02366   2.72628
    R2        3.36754  -0.00297   0.00000  -0.00925  -0.00925   3.35830
    R3        3.27273  -0.00262   0.00000  -0.00542  -0.00542   3.26732
    R4        2.76078  -0.00469   0.00000  -0.01332  -0.01332   2.74746
    R5        2.76093  -0.00463   0.00000  -0.01287  -0.01287   2.74807
    R6        2.05964   0.00046   0.00000   0.00164   0.00164   2.06128
    R7        2.06566   0.00035   0.00000   0.00123   0.00123   2.06689
    R8        2.08358   0.00044   0.00000   0.00212   0.00212   2.08570
    R9        2.06609   0.00031   0.00000   0.00119   0.00119   2.06728
   R10        2.06004   0.00041   0.00000   0.00145   0.00145   2.06150
   R11        2.08098   0.00037   0.00000   0.00171   0.00171   2.08269
   R12        3.56457  -0.00184   0.00000  -0.00922  -0.00922   3.55534
   R13        3.55841  -0.00181   0.00000  -0.00908  -0.00908   3.54933
   R14        3.55835  -0.00185   0.00000  -0.00897  -0.00897   3.54938
   R15        2.06957   0.00019   0.00000   0.00071   0.00071   2.07028
   R16        2.06697   0.00030   0.00000   0.00084   0.00084   2.06781
   R17        2.06581   0.00027   0.00000   0.00069   0.00069   2.06650
   R18        2.06528   0.00029   0.00000   0.00091   0.00091   2.06619
   R19        2.06919   0.00017   0.00000   0.00051   0.00051   2.06970
   R20        2.06732   0.00017   0.00000   0.00040   0.00040   2.06771
   R21        2.06707   0.00020   0.00000   0.00054   0.00054   2.06761
   R22        2.06928   0.00018   0.00000   0.00051   0.00051   2.06979
   R23        2.06525   0.00029   0.00000   0.00090   0.00090   2.06615
   R24        2.78949   0.00144   0.00000   0.00796   0.00796   2.79746
   R25        2.78548   0.00135   0.00000   0.00709   0.00709   2.79257
   R26        3.98648  -0.00345   0.00000  -0.02367  -0.02367   3.96281
    A1        1.89342   0.00010   0.00000   0.00194   0.00191   1.89533
    A2        2.13509  -0.00041   0.00000   0.00203   0.00200   2.13708
    A3        2.24399   0.00030   0.00000  -0.00588  -0.00591   2.23809
    A4        1.97147  -0.00080   0.00000  -0.00386  -0.00388   1.96758
    A5        1.95764  -0.00034   0.00000  -0.00332  -0.00334   1.95429
    A6        1.96888   0.00046   0.00000  -0.00159  -0.00162   1.96726
    A7        1.91244  -0.00042   0.00000  -0.00027  -0.00027   1.91217
    A8        1.89443  -0.00013   0.00000   0.00325   0.00325   1.89767
    A9        1.97964  -0.00022   0.00000  -0.00129  -0.00129   1.97835
   A10        1.89722   0.00027   0.00000  -0.00020  -0.00020   1.89701
   A11        1.89358   0.00026   0.00000  -0.00078  -0.00078   1.89279
   A12        1.88493   0.00026   0.00000  -0.00068  -0.00068   1.88425
   A13        1.89279  -0.00021   0.00000   0.00244   0.00243   1.89522
   A14        1.90762  -0.00036   0.00000  -0.00022  -0.00022   1.90740
   A15        1.98155  -0.00010   0.00000  -0.00087  -0.00087   1.98069
   A16        1.89427   0.00025   0.00000  -0.00033  -0.00033   1.89394
   A17        1.88771   0.00022   0.00000  -0.00021  -0.00021   1.88750
   A18        1.89812   0.00023   0.00000  -0.00079  -0.00079   1.89733
   A19        1.88750  -0.00031   0.00000  -0.00232  -0.00232   1.88518
   A20        1.90884   0.00003   0.00000  -0.00148  -0.00148   1.90735
   A21        1.92087   0.00002   0.00000  -0.00188  -0.00188   1.91899
   A22        1.91640   0.00017   0.00000   0.00306   0.00306   1.91946
   A23        1.91177   0.00016   0.00000   0.00240   0.00239   1.91416
   A24        1.91821  -0.00007   0.00000   0.00020   0.00020   1.91840
   A25        1.89947  -0.00023   0.00000  -0.00051  -0.00051   1.89896
   A26        1.96564  -0.00021   0.00000  -0.00076  -0.00076   1.96488
   A27        1.96394  -0.00014   0.00000  -0.00080  -0.00080   1.96314
   A28        1.87034   0.00022   0.00000   0.00018   0.00017   1.87051
   A29        1.87396   0.00018   0.00000   0.00047   0.00047   1.87443
   A30        1.88608   0.00022   0.00000   0.00152   0.00152   1.88760
   A31        1.93874  -0.00031   0.00000  -0.00303  -0.00303   1.93571
   A32        1.92918  -0.00020   0.00000  -0.00018  -0.00018   1.92901
   A33        1.94569  -0.00014   0.00000   0.00012   0.00012   1.94581
   A34        1.87927   0.00023   0.00000   0.00044   0.00044   1.87970
   A35        1.88923   0.00025   0.00000   0.00165   0.00165   1.89088
   A36        1.87927   0.00019   0.00000   0.00117   0.00117   1.88044
   A37        1.94277  -0.00020   0.00000  -0.00069  -0.00069   1.94207
   A38        1.92966  -0.00017   0.00000   0.00045   0.00045   1.93010
   A39        1.94067  -0.00030   0.00000  -0.00291  -0.00291   1.93775
   A40        1.87960   0.00021   0.00000   0.00121   0.00121   1.88080
   A41        1.88941   0.00027   0.00000   0.00162   0.00162   1.89103
   A42        1.87933   0.00022   0.00000   0.00052   0.00052   1.87985
   A43        1.93627  -0.00014   0.00000  -0.00064  -0.00064   1.93563
   A44        1.91582   0.00000   0.00000  -0.00075  -0.00075   1.91507
   A45        1.98880   0.00001   0.00000   0.00119   0.00119   1.99000
   A46        1.96208   0.00014   0.00000  -0.00295  -0.00295   1.95913
   A47        1.83036  -0.00001   0.00000   0.00153   0.00153   1.83189
   A48        1.82772   0.00002   0.00000   0.00175   0.00175   1.82946
    D1       -2.00216  -0.00015   0.00000  -0.00358  -0.00355  -2.00572
    D2        2.03235   0.00019   0.00000   0.00486   0.00488   2.03724
    D3        0.99525  -0.00025   0.00000  -0.01696  -0.01698   0.97827
    D4       -1.25342   0.00010   0.00000  -0.00851  -0.00854  -1.26196
    D5        3.12547  -0.00010   0.00000  -0.00059  -0.00058   3.12489
    D6       -1.07128  -0.00006   0.00000   0.00087   0.00089  -1.07039
    D7        1.03766  -0.00011   0.00000  -0.00100  -0.00099   1.03667
    D8        0.13980   0.00009   0.00000   0.01294   0.01293   0.15273
    D9        2.22623   0.00013   0.00000   0.01441   0.01440   2.24063
   D10       -1.94802   0.00008   0.00000   0.01254   0.01253  -1.93549
   D11        0.48051   0.00003   0.00000   0.00256   0.00255   0.48306
   D12        2.65957   0.00012   0.00000  -0.00220  -0.00220   2.65736
   D13       -1.58035   0.00015   0.00000   0.00025   0.00025  -1.58010
   D14       -2.83628  -0.00012   0.00000  -0.01279  -0.01279  -2.84907
   D15       -0.65721  -0.00004   0.00000  -0.01756  -0.01755  -0.67476
   D16        1.38606  -0.00001   0.00000  -0.01510  -0.01510   1.37096
   D17        0.93229   0.00035   0.00000   0.00559   0.00559   0.93787
   D18        3.00172   0.00036   0.00000   0.00710   0.00709   3.00881
   D19       -1.18649   0.00047   0.00000   0.00767   0.00767  -1.17882
   D20       -3.10804  -0.00042   0.00000  -0.00382  -0.00382  -3.11186
   D21       -1.03861  -0.00041   0.00000  -0.00231  -0.00231  -1.04092
   D22        1.05637  -0.00030   0.00000  -0.00174  -0.00174   1.05463
   D23       -2.99076  -0.00047   0.00000  -0.00601  -0.00601  -2.99677
   D24       -0.92857  -0.00050   0.00000  -0.00513  -0.00513  -0.93370
   D25        1.19385  -0.00053   0.00000  -0.00689  -0.00689   1.18696
   D26        1.04240   0.00053   0.00000   0.00361   0.00361   1.04601
   D27        3.10459   0.00050   0.00000   0.00449   0.00449   3.10908
   D28       -1.05617   0.00047   0.00000   0.00273   0.00273  -1.05344
   D29       -3.11832   0.00002   0.00000   0.00428   0.00428  -3.11403
   D30       -1.04700   0.00001   0.00000   0.00370   0.00370  -1.04330
   D31        1.09009   0.00003   0.00000   0.00453   0.00453   1.09462
   D32        1.08321   0.00007   0.00000   0.00570   0.00570   1.08891
   D33       -3.12866   0.00005   0.00000   0.00511   0.00511  -3.12355
   D34       -0.99157   0.00008   0.00000   0.00595   0.00595  -0.98562
   D35       -1.02478  -0.00005   0.00000   0.00201   0.00201  -1.02277
   D36        1.04653  -0.00007   0.00000   0.00143   0.00142   1.04796
   D37       -3.09956  -0.00004   0.00000   0.00226   0.00226  -3.09731
   D38        1.02903   0.00010   0.00000  -0.00172  -0.00172   1.02731
   D39        3.11404   0.00006   0.00000  -0.00325  -0.00325   3.11079
   D40       -1.07960   0.00008   0.00000  -0.00181  -0.00181  -1.08142
   D41        3.09756  -0.00015   0.00000  -0.00362  -0.00362   3.09394
   D42       -1.10062  -0.00019   0.00000  -0.00514  -0.00514  -1.10577
   D43        0.98892  -0.00017   0.00000  -0.00371  -0.00371   0.98521
   D44       -1.08153   0.00011   0.00000   0.00142   0.00142  -1.08011
   D45        1.00348   0.00006   0.00000  -0.00011  -0.00011   1.00337
   D46        3.09302   0.00008   0.00000   0.00132   0.00132   3.09435
   D47        1.07541  -0.00010   0.00000   0.00253   0.00253   1.07794
   D48       -3.11942  -0.00007   0.00000   0.00389   0.00389  -3.11553
   D49       -1.03278  -0.00010   0.00000   0.00294   0.00294  -1.02984
   D50       -0.99758   0.00017   0.00000   0.00505   0.00505  -0.99254
   D51        1.09077   0.00020   0.00000   0.00641   0.00641   1.09718
   D52       -3.10577   0.00017   0.00000   0.00546   0.00546  -3.10031
   D53       -3.10448  -0.00009   0.00000  -0.00038  -0.00038  -3.10486
   D54       -1.01612  -0.00006   0.00000   0.00098   0.00098  -1.01514
   D55        1.07052  -0.00009   0.00000   0.00003   0.00003   1.07055
         Item               Value     Threshold  Converged?
 Maximum Force            0.007934     0.000450     NO 
 RMS     Force            0.001098     0.000300     NO 
 Maximum Displacement     0.056135     0.001800     NO 
 RMS     Displacement     0.013000     0.001200     NO 
 Predicted change in Energy=-2.771935D-04
 GradGradGradGradGradGradGradGradGradGradGradGradGradGradGradGradGradGrad

                          Input orientation:                          
 ---------------------------------------------------------------------
 Center     Atomic     Atomic              Coordinates (Angstroms)
 Number     Number      Type              X           Y           Z
 ---------------------------------------------------------------------
    1          7             0        0.058419    0.353752   -0.299134
    2          7             0        0.277663    1.652874    0.288700
    3          6             0       -0.696152    1.974923    1.319122
    4          1             0       -0.719179    1.176637    2.062102
    5          1             0       -0.392582    2.903258    1.811390
    6          1             0       -1.717945    2.116271    0.926537
    7          6             0        0.393096    2.694041   -0.719955
    8          1             0        0.703914    3.621392   -0.229900
    9          1             0        1.158759    2.411233   -1.443720
   10          1             0       -0.548046    2.889497   -1.259116
   11         14             0        1.440421   -0.689597    0.100491
   12          6             0        1.124050   -2.386377   -0.648197
   13          1             0        1.955984   -3.048974   -0.385384
   14          1             0        0.209047   -2.849847   -0.266980
   15          1             0        1.061793   -2.356829   -1.739570
   16          6             0        3.006606    0.050307   -0.625694
   17          1             0        3.179099    1.057482   -0.236690
   18          1             0        3.876999   -0.561077   -0.364587
   19          1             0        2.954347    0.107072   -1.717158
   20          6             0        1.609856   -0.842665    1.964810
   21          1             0        0.723016   -1.306199    2.407274
   22          1             0        2.475059   -1.462555    2.223291
   23          1             0        1.752961    0.137582    2.427490
   24         14             0       -1.445280   -0.093807   -1.025760
   25          1             0       -2.153452    1.095861   -1.549803
   26          1             0       -1.210593   -1.111083   -2.071635
   27         17             0       -2.800517   -0.990177    0.299901
 ---------------------------------------------------------------------
                    Distance matrix (angstroms):
                    1          2          3          4          5
     1  N    0.000000
     2  N    1.442684   0.000000
     3  C    2.411707   1.453891   0.000000
     4  H    2.618632   2.089366   1.090784   0.000000
     5  H    3.340314   2.081170   1.093749   1.775033   0.000000
     6  H    2.786434   2.145699   1.103704   1.780436   1.777329
     7  C    2.401260   1.454214   2.421038   3.358498   2.658716
     8  H    3.331506   2.079831   2.659044   3.640782   2.425878
     9  H    2.598856   2.086316   3.356241   4.164332   3.639297
    10  H    2.778376   2.146338   2.739652   3.740811   3.074470
    11  Si   1.777134   2.621946   3.626248   3.463325   4.381287
    12  C    2.960696   4.231986   5.119025   4.841310   6.027435
    13  H    3.897016   5.037711   5.931164   5.567986   6.765400
    14  H    3.207299   4.537399   5.158829   4.743290   6.146527
    15  H    3.229374   4.561410   5.586595   5.487253   6.510993
    16  C    2.981698   3.294157   4.604006   4.730152   5.062922
    17  H    3.199653   3.008132   4.275490   4.527163   4.512030
    18  H    3.927180   4.275931   5.493622   5.480266   5.913189
    19  H    3.233889   3.684780   5.102352   5.377877   5.609922
    20  C    2.993963   3.288130   3.697754   3.084063   4.250321
    21  H    3.243728   3.666444   3.736827   2.891979   4.395357
    22  H    3.937226   4.275172   4.763439   4.146621   5.239594
    23  H    3.217558   3.007830   3.256142   2.706404   3.554138
    24  Si   1.728989   2.783384   3.215479   3.417036   4.259106
    25  H    2.647125   3.098495   3.335746   3.887096   4.202971
    26  H    2.626384   3.927537   4.613602   4.750046   5.644640
    27  Cl   3.215355   4.057220   3.776107   3.483160   4.820952
                    6          7          8          9         10
     6  H    0.000000
     7  C    2.738841   0.000000
     8  H    3.077034   1.093957   0.000000
     9  H    3.739057   1.090897   1.773337   0.000000
    10  H    2.596849   1.102110   1.778302   1.782134   0.000000
    11  Si   4.304710   3.635798   4.385912   3.475495   4.314215
    12  C    5.552528   5.133234   6.036951   4.863242   5.568122
    13  H    6.472917   5.961273   6.788640   5.618674   6.503770
    14  H    5.458948   5.565407   6.490239   5.474087   5.873466
    15  H    5.902855   5.195965   6.176269   4.778216   5.508753
    16  C    5.385073   3.718689   4.267515   3.107679   4.593231
    17  H    5.143459   3.267060   3.563736   2.715020   4.277060
    18  H    6.335502   4.781177   5.251633   4.169890   5.682224
    19  H    5.732043   3.774497   4.430217   2.933949   4.496493
    20  C    4.572479   4.603993   5.056212   4.733858   5.383240
    21  H    4.456924   5.088254   5.588936   5.370225   5.715057
    22  H    5.663113   5.502232   5.916216   5.494165   6.340874
    23  H    4.267934   4.276813   4.505458   4.528667   5.143806
    24  Si   2.961462   3.353392   4.365218   3.637435   3.124034
    25  H    2.713515   3.118931   4.035466   3.565417   2.424656
    26  H    4.434215   4.344862   5.427122   4.291249   4.135675
    27  Cl   3.348829   4.981238   5.816209   5.503242   4.749319
                   11         12         13         14         15
    11  Si   0.000000
    12  C    1.881406   0.000000
    13  H    2.463441   1.095545   0.000000
    14  H    2.513562   1.094239   1.762231   0.000000
    15  H    2.511741   1.093547   1.764217   1.771655   0.000000
    16  C    1.878227   3.079278   3.281326   4.045479   3.288970
    17  H    2.487765   4.031468   4.287319   4.908090   4.289424
    18  H    2.483893   3.315250   3.143304   4.324565   3.611189
    19  H    2.496097   3.272607   3.568050   4.287547   3.106940
    20  C    1.878251   3.073575   3.242071   3.312391   4.039245
    21  H    2.493214   3.265503   3.515169   3.130279   4.291259
    22  H    2.484798   3.305165   3.096991   3.641543   4.301315
    23  H    2.489343   4.028119   4.255305   4.309126   4.905526
    24  Si   3.154469   3.464085   4.551009   3.302772   3.451986
    25  H    4.339038   4.866302   5.951722   4.774479   4.721745
    26  H    3.453065   3.017136   4.077508   2.880184   2.612640
    27  Cl   4.256251   4.272060   5.228056   3.582905   4.576529
                   16         17         18         19         20
    16  C    0.000000
    17  H    1.093380   0.000000
    18  H    1.095240   1.767245   0.000000
    19  H    1.094187   1.773578   1.768377   0.000000
    20  C    3.075553   3.304495   3.262717   4.033181   0.000000
    21  H    4.031598   4.313916   4.264507   4.897663   1.094130
    22  H    3.269253   3.591346   3.078183   4.268558   1.095287
    23  H    3.301693   3.158787   3.577059   4.315363   1.093359
    24  Si   4.472148   4.830422   5.383506   4.458149   4.340293
    25  H    5.345405   5.491979   6.365258   5.205316   5.502079
    26  H    4.606988   5.228680   5.394452   4.353881   4.931519
    27  Cl   5.971768   6.343236   6.724202   6.196043   4.716468
                   21         22         23         24         25
    21  H    0.000000
    22  H    1.768601   0.000000
    23  H    1.773611   1.767359   0.000000
    24  Si   4.237584   5.272462   4.712453   0.000000
    25  H    5.449992   6.496525   5.656609   1.480351   0.000000
    26  H    4.882371   5.670446   5.530276   1.477764   2.455992
    27  Cl   4.117788   5.635093   5.150984   2.097028   2.862106
                   26         27
    26  H    0.000000
    27  Cl   2.857737   0.000000
 Stoichiometry    C5H17ClN2Si2
 Framework group  C1[X(C5H17ClN2Si2)]
 Deg. of freedom   75
 Full point group                 C1      NOp   1
 Largest Abelian subgroup         C1      NOp   1
 Largest concise Abelian subgroup C1      NOp   1
                         Standard orientation:                         
 ---------------------------------------------------------------------
 Center     Atomic     Atomic              Coordinates (Angstroms)
 Number     Number      Type              X           Y           Z
 ---------------------------------------------------------------------
    1          7             0        0.038506    0.346057   -0.313713
    2          7             0        0.260631    1.662823    0.232294
    3          6             0       -0.683287    2.001097    1.285094
    4          1             0       -0.672497    1.222709    2.049165
    5          1             0       -0.375414    2.945646    1.742619
    6          1             0       -1.718885    2.120229    0.922453
    7          6             0        0.330627    2.677957   -0.806620
    8          1             0        0.645685    3.621546   -0.351516
    9          1             0        1.075938    2.384710   -1.547276
   10          1             0       -0.629766    2.848186   -1.319761
   11         14             0        1.445412   -0.670390    0.067938
   12          6             0        1.125911   -2.390049   -0.625156
   13          1             0        1.973979   -3.035843   -0.372276
   14          1             0        0.229461   -2.853612   -0.202253
   15          1             0        1.028086   -2.390345   -1.714318
   16          6             0        2.978117    0.067731   -0.728133
   17          1             0        3.150688    1.086833   -0.371579
   18          1             0        3.863937   -0.526478   -0.479556
   19          1             0        2.889947    0.094752   -1.818427
   20          6             0        1.676827   -0.771712    1.929122
   21          1             0        0.810503   -1.233383    2.412302
   22          1             0        2.557480   -1.374553    2.175468
   23          1             0        1.822738    0.222103    2.360952
   24         14             0       -1.482257   -0.137892   -0.978902
   25          1             0       -2.221552    1.029196   -1.510680
   26          1             0       -1.268979   -1.179963   -2.004761
   27         17             0       -2.782861   -1.014005    0.413355
 ---------------------------------------------------------------------
 Rotational constants (GHZ):      0.9521091      0.6517282      0.5126668
 Isotopes: N-14,N-14,C-12,H-1,H-1,H-1,C-12,H-1,H-1,H-1,Si-28,C-12,H-1,H-1,H-1,C-1
 2,H-1,H-1,H-1,C-12,H-1,H-1,H-1,Si-28,H-1,H-1,Cl-35
 Standard basis: 6-311++G(d,p) (5D, 7F)
 There are   363 symmetry adapted basis functions of A   symmetry.
 Crude estimate of integral set expansion from redundant integrals=1.000.
 Integral buffers will be    262144 words long.
 Raffenetti 2 integral format.
 Two-electron integral symmetry is turned on.
   363 basis functions      558 primitive gaussians
    53 alpha electrons       53 beta electrons
       nuclear repulsion energy       902.9546661541 Hartrees.
 One-electron integrals computed using PRISM.
 NBasis=   363 RedAO= T  NBF=   363
 NBsUse=   363 1.00D-04 NBFU=   363
 Initial guess read from the read-write file:
 Requested convergence on RMS density matrix=1.00D-08 within  64 cycles.
 Requested convergence on MAX density matrix=1.00D-06.
 SCF Done:  E(RB+HF-PW91) =  -1349.44680752     A.U. after   10 cycles
             Convg  =    0.4931D-08             -V/T =  2.0027
             S**2   =   0.0000
 ***** Axes restored to original set *****
 -------------------------------------------------------------------
 Center     Atomic                   Forces (Hartrees/Bohr)
 Number     Number              X              Y              Z
 -------------------------------------------------------------------
    1          7          -0.000012783   -0.000154720   -0.000126829
    2          7           0.000111004    0.000099535    0.000096001
    3          6          -0.000033860    0.000028395    0.000082949
    4          1           0.000011463   -0.000014406   -0.000002270
    5          1          -0.000005831    0.000002094    0.000001935
    6          1          -0.000013695   -0.000012333   -0.000032756
    7          6           0.000021169    0.000087196   -0.000052938
    8          1          -0.000002686   -0.000000976   -0.000006142
    9          1          -0.000004144   -0.000004523    0.000002977
   10          1          -0.000015756   -0.000016401    0.000013355
   11         14          -0.000007419   -0.000025156    0.000021830
   12          6          -0.000015421   -0.000006820   -0.000018339
   13          1          -0.000009023   -0.000002639   -0.000000269
   14          1          -0.000014401    0.000002433   -0.000000324
   15          1          -0.000005134    0.000005781   -0.000001848
   16          6           0.000014416    0.000011475   -0.000023353
   17          1          -0.000004731    0.000002546   -0.000002908
   18          1          -0.000005245    0.000000856   -0.000004072
   19          1          -0.000007667   -0.000004845   -0.000003944
   20          6          -0.000003360   -0.000006221    0.000018113
   21          1          -0.000000242   -0.000000614   -0.000007371
   22          1           0.000003831    0.000005022   -0.000007097
   23          1           0.000003477    0.000004102   -0.000006647
   24         14           0.000053733    0.000018599    0.000013801
   25          1          -0.000010882    0.000011095   -0.000007698
   26          1          -0.000002127    0.000000763   -0.000006650
   27         17          -0.000044687   -0.000030238    0.000060494
 -------------------------------------------------------------------
 Cartesian Forces:  Max     0.000154720 RMS     0.000036525

 GradGradGradGradGradGradGradGradGradGradGradGradGradGradGradGradGradGrad
 Berny optimization.
 Internal  Forces:  Max     0.000189795 RMS     0.000025595
 Search for a local minimum.
 Step number   2 out of a maximum of 139
 All quantities printed in internal units (Hartrees-Bohrs-Radians)
 Update second derivatives using information from points  1  2
 Trust test= 1.00D+00 RLast= 6.66D-02 DXMaxT set to 3.00D-01
     Eigenvalues ---    0.00111   0.00142   0.00159   0.00287   0.00417
     Eigenvalues ---    0.00464   0.00504   0.00921   0.01672   0.02348
     Eigenvalues ---    0.02457   0.02843   0.02943   0.03290   0.03365
     Eigenvalues ---    0.03409   0.03973   0.04252   0.04332   0.05213
     Eigenvalues ---    0.06074   0.06110   0.06148   0.06179   0.06689
     Eigenvalues ---    0.07003   0.07229   0.09648   0.10130   0.10161
     Eigenvalues ---    0.10224   0.10316   0.10506   0.10751   0.11408
     Eigenvalues ---    0.11617   0.12483   0.12519   0.12597   0.13066
     Eigenvalues ---    0.13479   0.14297   0.14919   0.15545   0.15699
     Eigenvalues ---    0.15899   0.16999   0.17252   0.18198   0.18361
     Eigenvalues ---    0.18805   0.19187   0.19274   0.19465   0.21828
     Eigenvalues ---    0.24502   0.26852   0.30542   0.30839   0.32642
     Eigenvalues ---    0.32987   0.33110   0.33116   0.33236   0.33363
     Eigenvalues ---    0.33449   0.33471   0.33614   0.33759   0.34049
     Eigenvalues ---    0.34064   0.34098   0.34692   0.34890   0.36628
     Eigenvalues --- 1000.000001000.000001000.000001000.000001000.00000
     Eigenvalues --- 1000.000001000.000001000.000001000.000001000.00000
     Eigenvalues --- 1000.000001000.000001000.000001000.000001000.00000
     Eigenvalues --- 1000.000001000.000001000.000001000.000001000.00000
     Eigenvalues --- 1000.000001000.000001000.000001000.000001000.00000
     Eigenvalues --- 1000.000001000.000001000.000001000.000001000.00000
     Eigenvalues --- 1000.000001000.000001000.000001000.000001000.00000
     Eigenvalues --- 1000.000001000.000001000.000001000.000001000.00000
     Eigenvalues --- 1000.000001000.000001000.000001000.000001000.00000
     Eigenvalues --- 1000.000001000.000001000.000001000.000001000.00000
     Eigenvalues --- 1000.000001000.000001000.000001000.00000
 RFO step:  Lambda=-1.09729791D-06.
 Quartic linear search produced a step of -0.00648.
 Iteration  1 RMS(Cart)=  0.00213092 RMS(Int)=  0.00000171
 Iteration  2 RMS(Cart)=  0.00000295 RMS(Int)=  0.00000031
 Iteration  3 RMS(Cart)=  0.00000000 RMS(Int)=  0.00000031
 Variable       Old X    -DE/DX   Delta X   Delta X   Delta X     New X
                                 (Linear)    (Quad)   (Total)
    R1        2.72628   0.00019   0.00015   0.00073   0.00088   2.72716
    R2        3.35830  -0.00003   0.00006  -0.00007  -0.00001   3.35829
    R3        3.26732  -0.00002   0.00004  -0.00013  -0.00010   3.26722
    R4        2.74746   0.00007   0.00009   0.00025   0.00034   2.74779
    R5        2.74807   0.00008   0.00008   0.00025   0.00033   2.74839
    R6        2.06128   0.00001  -0.00001   0.00002   0.00001   2.06129
    R7        2.06689   0.00000  -0.00001  -0.00002  -0.00003   2.06686
    R8        2.08570   0.00003  -0.00001   0.00005   0.00004   2.08573
    R9        2.06728  -0.00001  -0.00001  -0.00002  -0.00003   2.06725
   R10        2.06150   0.00000  -0.00001  -0.00001  -0.00002   2.06148
   R11        2.08269   0.00000  -0.00001   0.00000  -0.00001   2.08267
   R12        3.55534   0.00001   0.00006  -0.00002   0.00004   3.55539
   R13        3.54933   0.00001   0.00006  -0.00005   0.00001   3.54934
   R14        3.54938   0.00001   0.00006  -0.00004   0.00002   3.54939
   R15        2.07028   0.00000   0.00000  -0.00001  -0.00001   2.07027
   R16        2.06781   0.00001  -0.00001   0.00002   0.00002   2.06783
   R17        2.06650   0.00000   0.00000   0.00001   0.00001   2.06651
   R18        2.06619   0.00000  -0.00001   0.00002   0.00001   2.06620
   R19        2.06970   0.00000   0.00000  -0.00002  -0.00002   2.06968
   R20        2.06771   0.00000   0.00000  -0.00001  -0.00001   2.06770
   R21        2.06761   0.00000   0.00000   0.00000   0.00000   2.06761
   R22        2.06979   0.00000   0.00000  -0.00002  -0.00002   2.06977
   R23        2.06615   0.00000  -0.00001   0.00002   0.00001   2.06616
   R24        2.79746   0.00002  -0.00005   0.00015   0.00010   2.79755
   R25        2.79257   0.00001  -0.00005   0.00008   0.00003   2.79260
   R26        3.96281   0.00008   0.00015   0.00042   0.00057   3.96338
    A1        1.89533   0.00006  -0.00001   0.00022   0.00021   1.89554
    A2        2.13708  -0.00002  -0.00001  -0.00009  -0.00010   2.13698
    A3        2.23809  -0.00005   0.00004  -0.00071  -0.00067   2.23741
    A4        1.96758  -0.00006   0.00003  -0.00059  -0.00057   1.96702
    A5        1.95429   0.00002   0.00002  -0.00070  -0.00068   1.95361
    A6        1.96726   0.00001   0.00001  -0.00034  -0.00033   1.96693
    A7        1.91217  -0.00002   0.00000  -0.00011  -0.00011   1.91206
    A8        1.89767   0.00003  -0.00002   0.00013   0.00011   1.89778
    A9        1.97835  -0.00005   0.00001  -0.00035  -0.00034   1.97800
   A10        1.89701   0.00001   0.00000   0.00018   0.00018   1.89719
   A11        1.89279   0.00002   0.00001   0.00009   0.00010   1.89289
   A12        1.88425   0.00001   0.00000   0.00009   0.00009   1.88434
[...]
 484,-0.00012503,-0.00005761,-0.00001115,0.00004130,-0.00000465,0.00006
 134,-0.00010356,0.00008733,-0.00251789,-0.04031945,0.00752586,-0.00161
 420,0.00345612,-0.01779382,0.00026213,0.00141922,0.00101428,0.00002876
 ,0.00080015,0.00077641,-0.00105474,-0.00470487,-0.00214378,-0.00009809
 ,0.00312824,0.00838478,0.00127498,0.00046794,-0.00065063,-0.00044636,-
 0.00011726,0.00013797,-0.00218358,-0.00069756,0.00102086,0.00507029,0.
 51222084,-0.00165613,0.00052650,-0.00046313,-0.00080508,0.00045854,-0.
 00048119,0.00039354,0.00024165,-0.00045924,-0.00008234,-0.00009449,-0.
 00006614,-0.00003015,0.00017686,0.00004672,-0.00010591,-0.00002840,0.0
 0011065,-0.00003618,-0.00003433,0.00020047,0.00003590,0.00010946,-0.00
 001141,-0.00000605,-0.00006806,0.00008760,-0.00006882,0.00001410,-0.00
 005915,-0.00764389,0.00762353,-0.15076709,-0.00067208,0.00115433,-0.00
 516472,0.00025483,0.00030999,0.00013016,-0.00025082,0.00008132,0.00018
 853,-0.00023763,-0.00122665,0.00008362,-0.00115701,0.00007169,-0.00496
 518,-0.00009754,0.00031842,0.00014443,-0.00008735,-0.00022844,-0.00002
 964,0.00121314,0.00061489,0.00009876,-0.01456863,0.01217197,0.38685010
 ,0.00073236,-0.00029064,0.00078434,0.00004831,0.00016919,-0.00007724,-
 0.00010610,-0.00001454,0.00012803,-0.00002772,0.00016880,-0.00004688,-
 0.00000390,-0.00001340,0.00000211,-0.00000231,0.00004196,-0.00002563,-
 0.00004571,-0.00000431,-0.00001625,-0.00000735,-0.00001055,-0.00000267
 ,0.00000114,0.00000159,-0.00000280,-0.00000593,0.00001055,-0.00000410,
 0.00047865,0.00159054,-0.00230792,0.00004015,0.00016921,0.00036717,-0.
 00005301,-0.00005225,0.00003984,0.00012650,-0.00000356,0.00003209,0.00
 007380,0.00017059,0.00003128,0.00039714,0.00008766,-0.00069290,-0.0000
 7853,-0.00000853,0.00000231,0.00019904,-0.00001595,-0.00015594,0.00028
 310,-0.00002158,-0.00013722,-0.21759337,-0.09186422,0.08776117,0.23818
 535,0.00042682,-0.00004348,-0.00043064,0.00038155,-0.00032934,0.000276
 98,-0.00032987,-0.00023366,0.00056327,0.00025493,-0.00022165,-0.000134
 92,0.00000347,0.00008361,-0.00007351,0.00007775,0.00009427,-0.00014585
 ,0.00012062,0.00000645,-0.00008156,-0.00002413,0.00000348,0.00000348,0
 .00000613,0.00001054,-0.00004779,0.00002169,-0.00003897,0.00004964,-0.
 00128237,-0.00236635,-0.00042226,0.00022002,-0.00006686,0.00022772,0.0
 0005796,-0.00001789,-0.00008928,-0.00010796,0.00005477,-0.00014659,-0.
 00001321,0.00000077,0.00008239,0.00014753,0.00047583,0.00028343,0.0002
 1507,0.00019174,-0.00021380,-0.00023424,-0.00002728,0.00008661,-0.0001
 9477,0.00021361,0.00001390,-0.09372714,-0.09058910,0.04518782,0.101699
 96,0.09627144,-0.00080224,-0.00084863,0.00219668,-0.00019515,0.0001938
 1,-0.00005745,-0.00002554,0.00003561,-0.00024248,-0.00004967,0.0000804
 1,0.00020068,-0.00000324,-0.00005867,0.00001658,-0.00004921,-0.0000021
 8,0.00003505,0.00007731,-0.00009311,-0.00015782,-0.00000259,-0.0000599
 4,0.00001298,0.00001998,-0.00001781,0.00006292,-0.00003270,0.00003629,
 0.00002126,0.02016370,0.00940883,-0.00619958,-0.00081184,-0.00039288,0
 .00160123,-0.00001386,0.00015144,0.00000225,-0.00033860,-0.00081565,-0
 .00054586,-0.00024520,0.00035013,0.00030418,-0.00129628,-0.00015529,-0
 .00543619,-0.00029226,-0.00000196,0.00019648,-0.00023891,-0.00028637,0
 .00023552,0.00158845,0.00082016,-0.00064988,0.10090055,0.05116053,-0.0
 8394044,-0.09766695,-0.04975942,0.08589778,0.00030567,-0.00001035,-0.0
 0074263,0.00015990,-0.00015896,0.00008794,-0.00009234,-0.00014474,0.00
 027239,0.00004369,-0.00001605,-0.00011866,0.00000064,0.00004421,-0.000
 02648,0.00001478,0.00005157,-0.00006051,0.00005719,0.00001272,0.000058
 34,-0.00000564,0.00002921,0.00000190,-0.00000136,-0.00000412,-0.000016
 72,-0.00000823,-0.00002714,0.00000482,-0.00304399,0.00073110,0.0012882
 2,0.00004718,-0.00018481,-0.00016039,0.00019570,-0.00027338,-0.0002030
 4,-0.00001084,0.00011039,-0.00000005,0.00011333,-0.00015238,0.00000998
 ,-0.00017731,-0.00003299,-0.00032175,-0.00001134,-0.00006030,0.0000665
 9,0.00014012,-0.00009029,0.00019780,0.00010514,0.00001037,-0.00008213,
 -0.20810176,0.11984328,-0.04892794,-0.01942197,0.01523981,-0.00755961,
 0.22607281,-0.00001796,0.00014580,-0.00031357,0.00042406,-0.00014569,0
 .00041499,-0.00012458,0.00023093,0.00002087,-0.00019615,-0.00010485,0.
 00005524,-0.00001200,0.00001957,-0.00000636,0.00004218,-0.00005354,0.0
 0008700,0.00014085,0.00020804,-0.00004630,-0.00000018,-0.00000100,-0.0
 0002457,-0.00001058,-0.00000489,0.00004570,0.00001552,-0.00009624,0.00
 008945,0.00080675,-0.00254133,-0.00113085,-0.00005318,-0.00014688,0.00
 031478,-0.00000134,-0.00003615,-0.00025013,-0.00005699,0.00001046,-0.0
 0007191,0.00003578,0.00004793,0.00007843,-0.00024746,0.00001073,0.0000
 3153,0.00012729,-0.00001876,0.00002240,-0.00030926,0.00012140,0.000237
 23,-0.00015287,0.00007971,-0.00004174,0.11979736,-0.12692344,0.0354007
 8,-0.01141909,0.00762733,-0.00420252,-0.13162056,0.13705190,-0.0033454
 2,0.00131638,-0.00574948,0.00003167,-0.00105451,-0.00005432,0.00029413
 ,0.00004834,-0.00022443,-0.00013314,-0.00003591,0.00000337,-0.00004894
 ,0.00004616,0.00006485,-0.00003572,-0.00005429,0.00006707,-0.00010354,
 0.00001621,0.00023200,0.00002734,0.00011505,-0.00000116,-0.00003339,-0
 .00001618,-0.00002224,0.00001436,-0.00001352,-0.00004524,-0.01687792,0
 .01229929,-0.00087000,0.00096925,-0.00049943,0.00107375,0.00003062,-0.
 00089649,-0.00055126,0.00006564,0.00019701,0.00006094,0.00037452,0.000
 17216,0.00017974,0.00101350,-0.00090679,0.00115885,-0.00018119,-0.0001
 2260,0.00006982,0.00079695,0.00027056,-0.00055093,-0.00012575,-0.00044
 594,0.00022698,-0.06139561,0.04432269,-0.05328971,0.01080273,-0.008668
 11,0.00194216,0.05462261,-0.03921921,0.05392499,-0.00008163,0.00025621
 ,0.00026084,-0.00003409,-0.00009141,0.00004870,-0.00002574,0.00049803,
 -0.00044008,-0.00061441,-0.00006881,-0.00000045,-0.00002202,0.00005189
 ,0.00000637,0.00001531,-0.00016650,0.00025752,0.00008835,0.00025586,0.
 00002600,0.00002321,0.00000923,-0.00002427,-0.00001592,-0.00001747,0.0
 0007746,0.00002628,-0.00007892,0.00006544,-0.00217386,-0.00203950,-0.0
 0043633,0.00031922,0.00022695,-0.00064845,0.00006500,-0.00024871,-0.00
 009820,0.00013007,0.00028201,0.00021910,0.00028244,-0.00022581,-0.0000
 9341,-0.00018824,0.00015021,-0.00015786,0.00010967,-0.00006864,0.00016
 253,-0.00001065,0.00005838,0.00011149,-0.00001597,-0.00006433,-0.00006
 905,-0.04661860,-0.03347837,-0.01403377,-0.00317886,-0.02293561,-0.012
 93520,0.00335950,0.02293876,0.01232947,0.04859342,-0.00063152,-0.00000
 209,-0.00089767,0.00029831,-0.00048174,0.00024898,0.00027652,0.0000509
 7,0.00010676,-0.00002985,-0.00004783,-0.00000844,-0.00003377,-0.000060
 43,0.00001598,-0.00003487,-0.00001714,0.00001523,0.00002117,-0.0000073
 3,0.00007612,0.00000842,0.00001087,0.00000210,-0.00000811,-0.00001664,
 0.00000547,-0.00002023,-0.00001805,0.00000382,0.00045335,0.00141614,0.
 00216656,0.00018218,0.00033826,0.00068063,-0.00005084,0.00005783,0.000
 10415,0.00005424,0.00001331,0.00005814,0.00001685,0.00023220,0.0001721
 6,0.00013608,0.00003151,-0.00052938,0.00002513,0.00005928,-0.00005732,
 -0.00001444,-0.00004075,-0.00002763,0.00014181,0.00008086,-0.00006436,
 -0.03202890,-0.25758394,-0.10297190,-0.00032741,-0.01105069,-0.0056563
 1,-0.00334083,-0.01541824,-0.00779889,0.03484686,0.28237650,0.00056107
 ,0.00071242,0.00076576,0.00078808,-0.00012645,0.00076871,-0.00055975,0
 .00045557,0.00027229,-0.00028388,-0.00001155,0.00009995,-0.00003340,0.
 00000647,0.00002716,0.00016654,-0.00010643,0.00005289,0.00026291,0.000
 47714,-0.00014597,-0.00001506,0.00002685,-0.00004258,-0.00003888,-0.00
 001764,0.00002866,0.00009146,-0.00019195,0.00019288,-0.00280572,-0.021
 75439,-0.00652249,-0.00038026,0.00138016,-0.00530750,0.00017181,0.0004
 0451,0.00027469,-0.00009833,0.00022541,0.00017268,-0.00036034,-0.00167
 511,-0.00060363,0.00001074,0.00101460,0.00130747,0.00071160,0.00049972
 ,-0.00042995,-0.00021602,-0.00002961,0.00006154,-0.00036974,0.00014896
 ,0.00026407,-0.01551477,-0.11728350,-0.08847911,0.00118083,0.01329998,
 0.00476968,0.00140588,0.00852987,0.00214842,0.01540074,0.11437552,0.09
 040473,-0.16683237,-0.03361319,-0.06695051,-0.00676803,-0.01400947,-0.
 00569938,0.01102158,0.00086993,-0.00212881,0.00040054,-0.00033314,-0.0
 0006453,-0.00258220,0.00141546,0.00136394,-0.00278855,0.00091451,-0.00
 175343,0.00179734,-0.00113232,0.00565544,-0.00027610,0.00225113,-0.000
 85797,-0.00111162,-0.00058037,0.00018625,-0.00166628,-0.00001887,-0.00
 120556,-0.02735464,0.01181824,-0.00994144,0.00256656,-0.00195050,0.001
 01356,-0.00021565,-0.00143950,-0.00058454,0.00023136,0.00028950,0.0002
 6832,-0.00018135,0.00095122,0.00001653,0.00299492,-0.00151457,0.000907
 28,-0.00025085,0.00002805,0.00008735,0.00117015,0.00023854,-0.00011821
 ,-0.00071624,-0.00008424,0.00024519,0.00418694,-0.00245179,0.00166765,
 -0.00015877,-0.00008851,-0.00021081,0.00038158,-0.00019360,0.00172693,
 -0.00010325,0.00021440,-0.00023914,0.33234182,-0.01992444,-0.06274252,
 -0.01869260,-0.01696898,-0.01296125,-0.01040108,-0.00498737,0.00088283
 ,-0.00185931,0.00090889,-0.00025061,0.00053788,0.00108578,0.00002247,0
 .00037655,0.00269828,-0.00078247,-0.00019532,-0.00529858,0.00056048,-0
 .00412936,0.00077479,-0.00027577,0.00121913,0.00001972,-0.00027111,0.0
 0016076,0.00151003,-0.00160260,0.00090408,0.00007089,0.01838372,0.0043
 4904,-0.00169604,-0.00044704,-0.00170231,-0.00098012,0.00009928,0.0001
 3795,0.00000832,-0.00242225,0.00063209,0.00071346,-0.00068727,-0.00044
 183,0.00218758,-0.00323762,0.00033281,-0.00078456,-0.00024927,0.000143
 09,0.00104714,0.00041395,-0.00037760,-0.00013205,0.00018450,-0.0000157
 3,0.00284516,-0.00345582,0.00031544,-0.00007954,-0.00000122,0.00037626
 ,0.00013444,-0.00017151,0.00144366,-0.00032616,0.00009602,-0.00079755,
 -0.01691288,0.33840832,-0.06799346,-0.02265831,-0.06250152,-0.00837217
 ,-0.01082139,-0.01251385,-0.00357380,-0.00038877,-0.00009426,-0.000998
 23,-0.00004754,-0.00149617,0.00114853,0.00039840,-0.00008475,0.0011687
 8,-0.00155811,0.00044474,0.00334330,-0.00061524,0.00420108,-0.00065502
 ,0.00101136,-0.00091615,0.00030065,-0.00004570,-0.00001958,-0.00145853
 ,0.00072039,-0.00009746,-0.00901013,0.00658031,0.00094518,-0.00138053,
 0.00008853,-0.00055416,-0.00036055,-0.00001942,-0.00107813,-0.00011879
 ,0.00043360,0.00088442,0.00137506,-0.00109890,-0.00127504,0.00203512,-
 0.00167807,0.00039157,-0.00028912,-0.00003802,0.00007734,0.00082096,0.
 00033283,-0.00029485,0.00010492,0.00002632,-0.00021853,0.00027699,-0.0
 0080608,-0.00003118,-0.00008768,0.00037472,-0.00059161,0.00033690,-0.0
 0000527,0.00009933,-0.00005060,-0.00001374,-0.00022149,0.04632693,0.03
 540411,0.28839399,-0.00980885,0.01295297,-0.00575368,0.00165406,-0.000
 35587,0.00164442,-0.00064679,-0.00007041,0.00035375,-0.00004378,0.0000
 6558,-0.00001422,0.00016001,-0.00012898,-0.00011277,0.00023351,-0.0002
 5344,-0.00022700,0.00056184,-0.00062784,-0.00006849,-0.00002792,-0.000
 13010,-0.00003588,0.00005559,0.00009483,0.00000539,-0.00062165,-0.0008
 3373,0.00007370,0.00264154,-0.00269362,-0.00085539,-0.00021082,0.00025
 949,0.00003218,0.00004150,0.00010262,0.00001494,0.00000295,0.00004048,
 0.00000783,0.00003699,-0.00001642,0.00000074,-0.00045927,0.00032346,-0
 .00007584,0.00004820,-0.00000746,-0.00002875,-0.00016122,-0.00008237,0
 .00006579,0.00004557,-0.00000211,0.00001108,-0.00102409,0.00070798,-0.
 00018575,0.00004121,0.00002656,0.00001788,-0.00001603,0.00000034,-0.00
 045150,0.00001686,-0.00006226,0.00005866,-0.05897840,0.05917801,-0.026
 44545,0.06276881,-0.00168723,0.00668122,-0.00054903,0.00066942,-0.0000
 2358,0.00066618,0.00155907,-0.00039228,-0.00024196,-0.00023689,0.00008
 173,-0.00020402,-0.00032788,0.00004176,-0.00005896,-0.00100663,0.00002
 358,-0.00040325,0.00095723,-0.00174039,0.00135467,-0.00034281,0.000172
 56,-0.00036935,-0.00020911,0.00006444,-0.00004246,-0.00179902,-0.00021
 253,-0.00072806,-0.00018353,-0.00146864,-0.00078339,0.00034823,0.00001
 630,0.00013957,0.00013907,0.00001848,0.00011963,-0.00000519,0.00021630
 ,-0.00014203,-0.00018787,0.00011716,0.00019765,-0.00008624,0.00025720,
 0.00003574,0.00012510,0.00004323,0.00000308,-0.00005214,0.00000127,0.0
 0001728,-0.00001184,-0.00004382,0.00000017,-0.00018239,0.00031748,-0.0
 0000705,-0.00000548,-0.00000518,-0.00004980,-0.00001753,0.00003200,-0.
 00010453,0.00005329,0.00000089,0.00011873,0.06150273,-0.12677758,0.041
 08906,-0.06314812,0.13048686,-0.00662945,0.00711196,0.00158444,0.00154
 873,0.00016241,0.00068327,0.00158206,-0.00075482,-0.00031761,-0.000081
 43,0.00000759,0.00003809,-0.00030325,-0.00000607,-0.00010456,-0.000975
 80,0.00008576,-0.00080302,-0.00014982,0.00040606,-0.00019749,0.0000853
 5,-0.00009472,0.00009948,-0.00011172,0.00000545,-0.00000322,0.00027471
 ,-0.00028440,0.00029300,0.00045573,-0.00221697,-0.00010747,0.00032573,
 0.00003089,0.00012015,0.00010950,0.00002548,0.00015867,0.00003046,0.00
 009938,-0.00015870,-0.00019901,0.00012262,0.00023230,-0.00039841,0.000
 47711,-0.00012501,0.00007235,0.00000529,-0.00002880,-0.00017280,-0.000
 11434,0.00009571,-0.00002311,-0.00000622,0.00004511,-0.00018973,0.0003
 0814,-0.00000959,0.00001570,-0.00003549,0.00002305,-0.00002730,0.00001
 249,-0.00009359,0.00002956,-0.00001813,0.00007552,-0.02667158,0.039355
 40,-0.04432296,0.02698172,-0.04714778,0.04120530,0.00191470,-0.0115530
 2,-0.00597050,-0.00148722,0.00029496,-0.00387468,-0.00207180,-0.000187
 01,0.00051632,0.00000499,0.00001559,-0.00007843,0.00047216,-0.00017696
 ,-0.00022056,0.00065264,-0.00006514,0.00026225,-0.00006954,0.00096001,
 -0.00093178,0.00008145,-0.00016970,0.00011321,0.00009869,-0.00001734,0
 .00006846,0.00039845,-0.00018969,0.00038630,0.00175288,-0.00043222,0.0
 0153380,-0.00157273,0.00098002,-0.00057781,-0.00018909,0.00027571,-0.0
 0016171,-0.00010533,-0.00012594,0.00012156,-0.00023654,0.00002149,-0.0
 0045256,-0.00027453,0.00002138,-0.00011940,0.00001275,-0.00001482,-0.0
 0001782,-0.00008374,-0.00000688,0.00001179,0.00008032,0.00003828,-0.00
 003133,-0.00018492,0.00005025,-0.00019159,-0.00000088,0.00003023,-0.00
 001275,-0.00001385,0.00003120,-0.00006481,0.00001598,-0.00002389,0.000
 01415,-0.02750470,0.02166317,0.01746533,0.00167735,0.00464114,0.003762
 35,0.02839220,-0.00215018,-0.00044827,-0.00269940,-0.00036061,0.000589
 72,-0.00189293,-0.00050012,-0.00008865,0.00031121,-0.00011433,0.000022
 12,-0.00009128,0.00010520,-0.00006479,-0.00005051,0.00004235,0.0000750
 2,0.00029341,0.00048731,0.00025994,-0.00005223,-0.00010320,0.00000046,
 -0.00013286,-0.00004107,-0.00000013,0.00000470,0.00011275,0.00027560,-
 0.00002206,0.00069843,-0.00290775,-0.00048777,0.00107275,-0.00057558,0
 .00054701,0.00044387,0.00002152,0.00026079,0.00023397,0.00034985,-0.00
 027128,0.00001042,-0.00002978,0.00042367,-0.00023505,0.00046052,-0.000
 01130,0.00015207,0.00005155,-0.00002240,-0.00014513,-0.00003402,0.0000
 4022,-0.00000235,-0.00003549,0.00000688,-0.00028489,0.00048381,0.00001
 090,0.00000942,-0.00001294,-0.00003815,-0.00003709,0.00002235,-0.00016
 413,0.00005771,-0.00001509,0.00015525,0.01977169,-0.10137963,-0.077026
 85,0.00186675,-0.00492175,-0.00654866,-0.01768183,0.10392259,0.0013532
 3,-0.00672581,-0.00025215,-0.00203841,-0.00014421,-0.00056173,-0.00068
 512,0.00019420,0.00041664,0.00017131,-0.00001081,0.00005624,0.00007788
 ,-0.00007819,-0.00005893,0.00030863,0.00011378,0.00005771,-0.00031231,
 0.00062454,-0.00094278,0.00008130,-0.00013989,0.00017480,-0.00003053,-
 0.00002995,0.00006702,0.00033754,-0.00010473,0.00024033,0.00101232,-0.
 00054997,-0.00034451,-0.00018488,0.00032021,-0.00033784,-0.00000192,0.
 00005131,0.00029731,-0.00008788,-0.00019960,-0.00015004,-0.00019810,0.
 00006844,0.00030806,-0.00013818,0.00010635,0.00000096,0.00006320,0.000
 01068,-0.00000272,-0.00004958,-0.00000824,0.00002642,-0.00004724,-0.00
 002224,0.00004439,-0.00011928,0.00016012,0.00000959,0.00001024,-0.0000
 3176,0.00005993,-0.00003573,0.00001192,-0.00004599,0.00001352,-0.00001
 724,0.00006736,0.01505080,-0.07563280,-0.10157096,-0.00084986,0.002525
 19,0.00513548,-0.01994684,0.08211181,0.10418725,-0.01311863,-0.0048181
 1,0.00196816,-0.00055629,0.00060105,0.00167847,-0.00065723,-0.00043303
 ,0.00108668,-0.00015107,0.00017312,0.00002338,0.00021896,-0.00028241,-
 0.00011257,0.00045520,-0.00058429,-0.00016099,-0.00084901,-0.00008583,
 -0.00180620,0.00004522,-0.00065272,0.00017639,0.00012120,0.00019184,-0
 .00006941,0.00032569,0.00011153,0.00026827,0.00476050,-0.00487618,0.00
 307486,-0.00067328,0.00089074,-0.00014780,-0.00006031,0.00026192,0.000
 08036,-0.00014474,-0.00017332,0.00002989,0.00007990,-0.00022098,-0.000
 10008,-0.00122876,0.00092741,-0.00052950,0.00014341,-0.00003196,-0.000
 04387,-0.00050303,-0.00018070,0.00012437,0.00024187,0.00006020,-0.0000
 6438,-0.00071910,0.00051985,-0.00048154,0.00007770,0.00000779,0.000014
 73,-0.00009256,0.00005573,-0.00030277,0.00003808,-0.00006841,0.0000907
 6,-0.05960385,-0.02675504,0.04609037,0.00201288,-0.00050541,0.00065937
 ,-0.00175970,-0.00340877,0.00624590,0.07159680,-0.00849301,0.00364837,
 0.00103866,-0.00028590,0.00061397,0.00029837,0.00094919,-0.00123411,0.
 00054103,0.00004109,0.00000580,-0.00004251,-0.00034673,-0.00011299,-0.
 00002280,-0.00066090,-0.00016296,-0.00052154,0.00021199,-0.00009805,-0
 .00018126,-0.00007693,-0.00014126,-0.00012171,-0.00001992,0.00008755,-
 0.00002686,-0.00009423,0.00026115,-0.00004383,0.00218011,-0.00476363,0
 .00158056,-0.00026615,0.00040068,0.00006526,0.00018236,0.00018291,-0.0
 0002443,0.00006317,0.00030565,-0.00009719,0.00006150,-0.00005714,-0.00
 008168,-0.00073493,0.00091996,-0.00032394,0.00019116,0.00004229,-0.000
 03441,-0.00036314,-0.00014127,0.00010226,0.00012933,0.00000042,-0.0000
 4072,-0.00051727,0.00061541,-0.00012885,0.00001162,-0.00002915,-0.0001
 7474,-0.00003554,0.00005434,-0.00024699,0.00012494,-0.00000480,0.00016
 295,-0.02594224,-0.04133618,0.03036156,-0.00720642,-0.00298675,0.00901
 159,0.00162105,0.00397880,-0.00260320,0.03927581,0.03995107,0.00182873
 ,-0.00127071,0.00658883,0.00000626,-0.00018890,0.00066772,0.00070547,-
 0.00002849,-0.00112786,0.00055957,-0.00020695,0.00043874,-0.00042412,0
 .00000981,0.00034860,-0.00041581,0.00039902,-0.00040798,-0.00057457,0.
 00059895,-0.00007587,0.00019161,0.00016212,0.00006522,-0.00006867,-0.0
 0009160,0.00010058,0.00032812,-0.00024726,0.00005787,-0.00180399,0.001
 87799,-0.00216155,0.00068243,-0.00043752,0.00023320,0.00005475,-0.0001
 8501,0.00014264,0.00002288,-0.00010010,-0.00027234,-0.00034346,0.00031
 439,0.00034494,0.00041981,-0.00031355,0.00033789,-0.00003578,0.0000184
 1,0.00000987,0.00019037,0.00006066,-0.00004999,-0.00017167,-0.00004728
 ,0.00008970,0.00052251,-0.00016629,0.00026630,0.00006646,-0.00016888,0
 .00024287,-0.00007022,-0.00004041,0.00024613,-0.00002100,0.00002934,-0
 .00000179,0.04190959,0.02855726,-0.06755526,0.00583655,0.00456464,-0.0
 0351753,0.00839718,0.00534606,-0.00688185,-0.05779295,-0.03844556,0.07
 187111\\-0.00000171,-0.00000273,0.00000294,-0.00000152,-0.00000023,-0.
 00000072,-0.00000425,-0.00000089,-0.00000265,-0.00000520,-0.00000067,-
 0.00000313,-0.00000569,-0.00000045,-0.00000261,-0.00000334,-0.00000153
 ,-0.00000566,-0.00000033,-0.00000020,-0.00000122,-0.00000169,-0.000000
 04,-0.00000056,0.00000142,-0.00000019,0.00000053,0.00000052,-0.0000010
 6,-0.00000280,0.00000185,0.00000143,-0.00000070,0.00000460,-0.00000078
 ,0.00000304,0.00000379,0.00000118,0.00000292,0.00000339,-0.00000063,0.
 00000051,0.00000491,0.00000018,0.00000162,0.00000138,0.00000182,0.0000
 0485,0.00000120,0.00000102,0.00000740,0.00000112,0.00000107,0.00000529
 ,0.00000303,0.00000351,0.00000520,-0.00000411,0.00000278,0.00000273,-0
 .00000446,0.00000202,0.00000075,-0.00000424,0.00000074,0.00000433,-0.0
 0000352,0.00000135,0.00000222,0.00000430,-0.00000097,-0.00000735,0.000
 00309,-0.00000227,-0.00000698,0.00000546,-0.00000249,-0.00000322,0.,-0
 .00000196,-0.00000675\\\@


 WOE UNTO THEM THAT CALL EVIL GOOD, AND GOOD EVIL      
 Job cpu time:  1 days  9 hours 50 minutes 13.3 seconds.
 File lengths (MBytes):  RWF=  512 Int=    0 D2E=    0 Chk=   13 Scr=    1
 Normal termination of Gaussian 98.

