 Entering Gaussian System, Link 0=g98
 Initial command:
 /usr/local/share/g98/l1.exe /scr/Andy/Gau-22539.inp -scrdir=/scr/Andy/
 Entering Link 1 = /usr/local/share/g98/l1.exe PID=     22540.
  
 Copyright (c) 1988,1990,1992,1993,1995,1998 Gaussian, Inc.
                  All Rights Reserved.
  
 This is part of the Gaussian(R) 98 program.  It is based on
 the Gaussian 94(TM) system (copyright 1995 Gaussian, Inc.),
 the Gaussian 92(TM) system (copyright 1992 Gaussian, Inc.),
 the Gaussian 90(TM) system (copyright 1990 Gaussian, Inc.),
 the Gaussian 88(TM) system (copyright 1988 Gaussian, Inc.),
 the Gaussian 86(TM) system (copyright 1986 Carnegie Mellon
 University), and the Gaussian 82(TM) system (copyright 1983
 Carnegie Mellon University). Gaussian is a federally registered
 trademark of Gaussian, Inc.
  
 This software contains proprietary and confidential information,
 including trade secrets, belonging to Gaussian, Inc.
  
 This software is provided under written license and may be
 used, copied, transmitted, or stored only in accord with that
 written license.
  
 The following legend is applicable only to US Government
 contracts under DFARS:
  
                    RESTRICTED RIGHTS LEGEND
  
 Use, duplication or disclosure by the US Government is subject
 to restrictions as set forth in subparagraph (c)(1)(ii) of the
 Rights in Technical Data and Computer Software clause at DFARS
 252.227-7013.
  
 Gaussian, Inc.
 Carnegie Office Park, Building 6, Pittsburgh, PA 15106 USA
  
 The following legend is applicable only to US Government
 contracts under FAR:
  
                    RESTRICTED RIGHTS LEGEND
  
 Use, reproduction and disclosure by the US Government is subject
 to restrictions as set forth in subparagraph (c) of the
 Commercial Computer Software - Restricted Rights clause at FAR
 52.227-19.
  
 Gaussian, Inc.
 Carnegie Office Park, Building 6, Pittsburgh, PA 15106 USA
  
  
 ---------------------------------------------------------------
 Warning -- This program may not be used in any manner that
 competes with the business of Gaussian, Inc. or will provide
 assistance to any competitor of Gaussian, Inc.  The licensee
 of this program is prohibited from giving any competitor of
 Gaussian, Inc. access to this program.  By using this program,
 the user acknowledges that Gaussian, Inc. is engaged in the
 business of creating and licensing software in the field of
 computational chemistry and represents and warrants to the
 licensee that it is not a competitor of Gaussian, Inc. and that
 it will not use this program in any manner prohibited above.
 ---------------------------------------------------------------
  

 Cite this work as:
 Gaussian 98, Revision A.7,
 M. J. Frisch, G. W. Trucks, H. B. Schlegel, G. E. Scuseria, 
 M. A. Robb, J. R. Cheeseman, V. G. Zakrzewski, J. A. Montgomery, Jr., 
 R. E. Stratmann, J. C. Burant, S. Dapprich, J. M. Millam, 
 A. D. Daniels, K. N. Kudin, M. C. Strain, O. Farkas, J. Tomasi, 
 V. Barone, M. Cossi, R. Cammi, B. Mennucci, C. Pomelli, C. Adamo, 
 S. Clifford, J. Ochterski, G. A. Petersson, P. Y. Ayala, Q. Cui, 
 K. Morokuma, D. K. Malick, A. D. Rabuck, K. Raghavachari, 
 J. B. Foresman, J. Cioslowski, J. V. Ortiz, A. G. Baboul, 
 B. B. Stefanov, G. Liu, A. Liashenko, P. Piskorz, I. Komaromi, 
 R. Gomperts, R. L. Martin, D. J. Fox, T. Keith, M. A. Al-Laham, 
 C. Y. Peng, A. Nanayakkara, C. Gonzalez, M. Challacombe, 
 P. M. W. Gill, B. Johnson, W. Chen, M. W. Wong, J. L. Andres, 
 C. Gonzalez, M. Head-Gordon, E. S. Replogle, and J. A. Pople, 
 Gaussian, Inc., Pittsburgh PA, 1998.

 *********************************************
 Gaussian 98:  x86-Linux-G98RevA.7 11-Apr-1999
                   3-Oct-2003 
 *********************************************
 %Chk=/scr/Andy/difluoro.chk
 Default route:  MaxDisk=2000MB
 ------------------------
 # B3LYP/cc-pVDZ OPT FREQ
 ------------------------
 1/14=-1,18=20,26=3,38=1/1,3;
 2/9=110,17=6,18=5/2;
 3/5=16,11=2,25=1,30=1/1,2,3;
 4//1;
 5/5=2,38=4,42=-5/2;
 6/7=2,8=2,9=2,10=2,28=1/1;
 7//1,2,3,16;
 1/14=-1,18=20/3(1);
 99//99;
 2/9=110/2;
 3/5=16,11=2,25=1,30=1/1,2,3;
 4/5=5,16=2/1;
 5/5=2,38=4,42=-5/2;
 7//1,2,3,16;
 1/14=-1,18=20/3(-5);
 2/9=110/2;
 6/7=2,8=2,9=2,10=2,19=2,28=1/1;
 99/9=1/99;
 -------------------------------------------
 Difluorodithiadiazine Frequency Calculation
 -------------------------------------------
 Symbolic Z-matrix:
 Charge =  0 Multiplicity = 1
 C
 C                    1    rCC1
 C                    2    rCC2     1    aCCCa
 C                    3    rCC3     2    aCCCb    1    FI1      0
 C                    4    rCC4     3    aCCCc    2    FI2      0
 C                    5    rCC5     4    aCCCd    3    FI3      0
 F                    3    rCF1     2    aCCF1    1    FI4      0
 H                    4    rCH1     3    aCCH1    2    FI5      0
 F                    5    rCF2     4    aCCF2    3    FI6      0
 H                    6    rCH2     5    aCCH2    4    FI7      0
 N                    1    rCN      6    aCCN     5    FI8      0
 S                    11   rSN1     1    aCNS     6    FI9      0
 N                    12   rSN2     11   aNSN     1    FI10     0
 S                    13   rSN3     12   aSNS     11   FI11     0
       Variables:
  rCC1                  1.4                      
  rCC2                  1.4                      
  rCC3                  1.4                      
  rCC4                  1.4                      
  rCC5                  1.4                      
  rCF1                  1.34                     
  rCH1                  1.09                     
  rCF2                  1.34                     
  rCH2                  1.09                     
  rCN                   1.4                      
  rSN1                  1.57                     
  rSN2                  1.57                     
  rSN3                  1.7                      
  aCCCa               120.                       
  aCCCb               120.                       
  aCCCc               120.                       
  aCCCd               120.                       
  aCCF1               120.                       
  aCCH1               120.                       
  aCCF2               120.                       
  aCCH2               120.                       
  aCCN                125.                       
  aCNS                120.                       
  aNSN                120.                       
  aSNS                125.                       
  FI1                   0.                       
  FI2                   0.                       
  FI3                   0.                       
  FI4                 180.                       
  FI5                 180.                       
  FI6                 180.                       
  FI7                 180.                       
  FI8                 180.                       
  FI9                 180.                       
  FI10                  0.                       
  FI11                  0.                       

 GradGradGradGradGradGradGradGradGradGradGradGradGradGradGradGradGradGrad
 Berny optimization.
 Initialization pass.
                         ----------------------------
                         !    Initial Parameters    !
                         ! (Angstroms and Degrees)  !
 ------------------------                            -------------------------
 ! Name  Definition              Value          Derivative Info.             !
 -----------------------------------------------------------------------------
 ! R1    R(1,2)                  1.4            estimate D2E/DX2             !
 ! R2    R(1,6)                  1.4            estimate D2E/DX2             !
 ! R3    R(1,11)                 1.4            estimate D2E/DX2             !
 ! R4    R(2,3)                  1.4            estimate D2E/DX2             !
 ! R5    R(2,14)                 1.6262         estimate D2E/DX2             !
 ! R6    R(3,4)                  1.4            estimate D2E/DX2             !
 ! R7    R(3,7)                  1.34           estimate D2E/DX2             !
 ! R8    R(4,5)                  1.4            estimate D2E/DX2             !
 ! R9    R(4,8)                  1.09           estimate D2E/DX2             !
 ! R10   R(5,6)                  1.4            estimate D2E/DX2             !
 ! R11   R(5,9)                  1.34           estimate D2E/DX2             !
 ! R12   R(6,10)                 1.09           estimate D2E/DX2             !
 ! R13   R(11,12)                1.57           estimate D2E/DX2             !
 ! R14   R(12,13)                1.57           estimate D2E/DX2             !
 ! R15   R(13,14)                1.7            estimate D2E/DX2             !
 ! A1    A(2,1,6)              120.             estimate D2E/DX2             !
 ! A2    A(2,1,11)             115.             estimate D2E/DX2             !
 ! A3    A(6,1,11)             125.             estimate D2E/DX2             !
 ! A4    A(1,2,3)              120.             estimate D2E/DX2             !
 ! A5    A(1,2,14)             144.4362         estimate D2E/DX2             !
 ! A6    A(3,2,14)              95.5638         estimate D2E/DX2             !
 ! A7    A(2,3,4)              120.             estimate D2E/DX2             !
 ! A8    A(2,3,7)              120.             estimate D2E/DX2             !
 ! A9    A(4,3,7)              120.             estimate D2E/DX2             !
 ! A10   A(3,4,5)              120.             estimate D2E/DX2             !
 ! A11   A(3,4,8)              120.             estimate D2E/DX2             !
 ! A12   A(5,4,8)              120.             estimate D2E/DX2             !
 ! A13   A(4,5,6)              120.             estimate D2E/DX2             !
 ! A14   A(4,5,9)              120.             estimate D2E/DX2             !
 ! A15   A(6,5,9)              120.             estimate D2E/DX2             !
 ! A16   A(1,6,5)              120.             estimate D2E/DX2             !
 ! A17   A(1,6,10)             120.             estimate D2E/DX2             !
 ! A18   A(5,6,10)             120.             estimate D2E/DX2             !
 ! A19   A(1,11,12)            120.             estimate D2E/DX2             !
 ! A20   A(11,12,13)           120.             estimate D2E/DX2             !
 ! A21   A(12,13,14)           125.             estimate D2E/DX2             !
 ! A22   A(2,14,13)             95.5638         estimate D2E/DX2             !
 ! D1    D(6,1,2,3)              0.             estimate D2E/DX2             !
 ! D2    D(6,1,2,14)           180.             estimate D2E/DX2             !
 ! D3    D(11,1,2,3)           180.             estimate D2E/DX2             !
 ! D4    D(11,1,2,14)            0.             estimate D2E/DX2             !
 ! D5    D(2,1,6,5)              0.             estimate D2E/DX2             !
 ! D6    D(2,1,6,10)           180.             estimate D2E/DX2             !
 ! D7    D(11,1,6,5)           180.             estimate D2E/DX2             !
 ! D8    D(11,1,6,10)            0.             estimate D2E/DX2             !
 ! D9    D(2,1,11,12)            0.             estimate D2E/DX2             !
 ! D10   D(6,1,11,12)          180.             estimate D2E/DX2             !
 ! D11   D(1,2,3,4)              0.             estimate D2E/DX2             !
 ! D12   D(1,2,3,7)            180.             estimate D2E/DX2             !
 ! D13   D(14,2,3,4)           180.             estimate D2E/DX2             !
 ! D14   D(14,2,3,7)             0.             estimate D2E/DX2             !
 ! D15   D(1,2,14,13)            0.             estimate D2E/DX2             !
 ! D16   D(3,2,14,13)          180.             estimate D2E/DX2             !
 ! D17   D(2,3,4,5)              0.             estimate D2E/DX2             !
 ! D18   D(2,3,4,8)            180.             estimate D2E/DX2             !
 ! D19   D(7,3,4,5)            180.             estimate D2E/DX2             !
 ! D20   D(7,3,4,8)              0.             estimate D2E/DX2             !
 ! D21   D(3,4,5,6)              0.             estimate D2E/DX2             !
 ! D22   D(3,4,5,9)            180.             estimate D2E/DX2             !
 ! D23   D(8,4,5,6)            180.             estimate D2E/DX2             !
 ! D24   D(8,4,5,9)              0.             estimate D2E/DX2             !
 ! D25   D(4,5,6,1)              0.             estimate D2E/DX2             !
 ! D26   D(4,5,6,10)           180.             estimate D2E/DX2             !
 ! D27   D(9,5,6,1)            180.             estimate D2E/DX2             !
 ! D28   D(9,5,6,10)             0.             estimate D2E/DX2             !
 ! D29   D(1,11,12,13)           0.             estimate D2E/DX2             !
 ! D30   D(11,12,13,14)          0.             estimate D2E/DX2             !
 ! D31   D(12,13,14,2)           0.             estimate D2E/DX2             !
 -----------------------------------------------------------------------------
 Trust Radius=3.00D-01 FncErr=1.00D-07 GrdErr=1.00D-06
 Number of steps in this run=  78 maximum allowed number of steps= 100.
 GradGradGradGradGradGradGradGradGradGradGradGradGradGradGradGradGradGrad

                          Input orientation:                          
 ---------------------------------------------------------------------
 Center     Atomic     Atomic              Coordinates (Angstroms)
 Number     Number      Type              X           Y           Z
 ---------------------------------------------------------------------
    1          6             0        0.000000    0.000000    0.000000
    2          6             0        0.000000    0.000000    1.400000
    3          6             0        1.212436    0.000000    2.100000
    4          6             0        2.424871    0.000000    1.400000
    5          6             0        2.424871    0.000000    0.000000
    6          6             0        1.212436    0.000000   -0.700000
    7          9             0        1.212436    0.000000    3.440000
    8          1             0        3.368839    0.000000    1.945000
    9          9             0        3.585345    0.000000   -0.670000
   10          1             0        1.212436    0.000000   -1.790000
   11          7             0       -1.268831    0.000000   -0.591666
   12         16             0       -2.554900    0.000000    0.308849
   13          7             0       -2.418065    0.000000    1.872875
   14         16             0       -0.945822    0.000000    2.722875
 ---------------------------------------------------------------------
                    Distance matrix (angstroms):
                    1          2          3          4          5
     1  C    0.000000
     2  C    1.400000   0.000000
     3  C    2.424871   1.400000   0.000000
     4  C    2.800000   2.424871   1.400000   0.000000
     5  C    2.424871   2.800000   2.424871   1.400000   0.000000
     6  C    1.400000   2.424871   2.800000   2.424871   1.400000
     7  F    3.647410   2.373099   1.340000   2.373099   3.647410
     8  H    3.890000   3.412638   2.161967   1.090000   2.161967
     9  F    3.647410   4.140000   3.647410   2.373099   1.340000
    10  H    2.161967   3.412638   3.890000   3.412638   2.161967
    11  N    1.400000   2.361496   3.660840   4.196447   3.740789
    12  S    2.573500   2.778151   4.171455   5.097914   4.989339
    13  N    3.058545   2.463869   3.637598   4.865968   5.192465
    14  S    2.882469   1.626216   2.246341   3.620990   4.333084
                    6          7          8          9         10
     6  C    0.000000
     7  F    4.140000   0.000000
     8  H    3.412638   2.623947   0.000000
     9  F    2.373099   4.745819   2.623947   0.000000
    10  H    1.090000   5.230000   4.312807   2.623947   0.000000
    11  N    2.483630   4.734027   5.286081   4.854808   2.755483
    12  S    3.900076   4.898665   6.145540   6.217777   4.312538
    13  N    4.449744   3.954291   5.787353   6.519751   5.157246
    14  S    4.046498   2.274279   4.384220   5.660660   5.002411
                   11         12         13         14
    11  N    0.000000
    12  S    1.570000   0.000000
    13  N    2.719320   1.570000   0.000000
    14  S    3.330242   2.901147   1.700000   0.000000
 Stoichiometry    C6H2F2N2S2
 Framework group  CS[SG(C6H2F2N2S2)]
 Deg. of freedom   25
 Full point group                 CS      NOp   2
 Largest Abelian subgroup         CS      NOp   2
 Largest concise Abelian subgroup C1      NOp   1
                         Standard orientation:                         
 ---------------------------------------------------------------------
 Center     Atomic     Atomic              Coordinates (Angstroms)
 Number     Number      Type              X           Y           Z
 ---------------------------------------------------------------------
    1          6             0       -0.094011   -1.056481    0.000000
    2          6             0       -0.094011    0.343519    0.000000
    3          6             0        1.118424    1.043519    0.000000
    4          6             0        2.330860    0.343519    0.000000
    5          6             0        2.330860   -1.056481    0.000000
    6          6             0        1.118424   -1.756481    0.000000
    7          9             0        1.118424    2.383519    0.000000
    8          1             0        3.274827    0.888519    0.000000
    9          9             0        3.491334   -1.726481    0.000000
   10          1             0        1.118424   -2.846481    0.000000
   11          7             0       -1.362842   -1.648147    0.000000
   12         16             0       -2.648911   -0.747632    0.000000
   13          7             0       -2.512077    0.816394    0.000000
   14         16             0       -1.039833    1.666394    0.000000
 ---------------------------------------------------------------------
 Rotational constants (GHZ):      1.2933067      0.6179892      0.4181716
 Isotopes: C-12,C-12,C-12,C-12,C-12,C-12,F-19,H-1,F-19,H-1,N-14,S-32,N-14,S-32
 Standard basis: CC-pVDZ (5D, 7F)
 There are   134 symmetry adapted basis functions of A'  symmetry.
 There are    52 symmetry adapted basis functions of A"  symmetry.
 Crude estimate of integral set expansion from redundant integrals=1.000.
 Integral buffers will be    262144 words long.
 Raffenetti 2 integral format.
 Two-electron integral symmetry is turned on.
   186 basis functions      534 primitive gaussians
    51 alpha electrons       51 beta electrons
       nuclear repulsion energy       895.6542599927 Hartrees.
 One-electron integrals computed using PRISM.
 NBasis=   186 RedAO= T  NBF=   134    52
 NBsUse=   186 1.00D-04 NBFU=   134    52
 Projected CNDO Guess.
 Initial guess orbital symmetries:
       Occupied  (A') (A') (A') (A') (A') (A') (A') (A') (A') (A')
                 (A') (A') (A') (A") (A') (A') (A') (A') (A') (A")
                 (A') (A') (A') (A') (A') (A') (A') (A') (A') (A')
                 (A") (A') (A') (A") (A') (A") (A') (A') (A') (A')
                 (A') (A") (A") (A') (A') (A") (A') (A') (A") (A')
                 (A")
       Virtual   (A") (A') (A") (A') (A') (A") (A') (A') (A") (A')
                 (A') (A') (A') (A') (A') (A') (A') (A') (A') (A')
                 (A') (A') (A') (A') (A') (A') (A') (A') (A') (A')
                 (A') (A') (A') (A') (A') (A') (A') (A') (A') (A')
                 (A') (A') (A') (A') (A') (A') (A') (A') (A') (A')
                 (A') (A') (A') (A') (A') (A') (A') (A') (A') (A')
                 (A') (A') (A') (A') (A') (A') (A') (A') (A') (A')
                 (A') (A') (A') (A') (A') (A') (A') (A') (A') (A')
                 (A') (A') (A') (A') (A') (A') (A') (A') (A') (A')
                 (A') (A') (A') (A') (A') (A') (A') (A") (A") (A")
                 (A") (A") (A") (A") (A") (A") (A") (A") (A") (A")
                 (A") (A") (A") (A") (A") (A") (A") (A") (A") (A")
                 (A") (A") (A") (A") (A") (A") (A") (A") (A") (A")
                 (A") (A") (A") (A") (A")
 Requested convergence on RMS density matrix=1.00D-08 within  64 cycles.
 Requested convergence on MAX density matrix=1.00D-06.
 Integral accuracy reduced to 1.0D-05 until final iterations.
 Initial convergence to 1.0D-05 achieved.  Increase integral accuracy.
 SCF Done:  E(RB+HF-LYP) =  -1335.30592717     A.U. after   20 cycles
             Convg  =    0.9533D-08             -V/T =  2.0031
             S**2   =   0.0000

 **********************************************************************

            Population analysis using the SCF density.

 **********************************************************************

 Orbital Symmetries:
       Occupied  (A') (A') (A') (A') (A') (A') (A') (A') (A') (A')
                 (A') (A') (A') (A') (A') (A") (A') (A') (A') (A")
                 (A') (A') (A') (A') (A') (A') (A') (A') (A') (A')
                 (A') (A') (A') (A') (A') (A") (A") (A') (A') (A")
                 (A') (A') (A') (A") (A') (A") (A') (A") (A') (A")
                 (A")
       Virtual   (A") (A") (A') (A") (A') (A') (A') (A') (A') (A')
                 (A") (A') (A') (A') (A') (A') (A') (A') (A') (A')
                 (A") (A') (A") (A') (A') (A") (A') (A') (A') (A")
                 (A') (A") (A") (A') (A") (A') (A') (A") (A") (A')
                 (A") (A') (A") (A') (A') (A') (A') (A") (A') (A')
                 (A') (A") (A') (A') (A") (A') (A") (A') (A") (A')
                 (A') (A") (A') (A') (A') (A") (A') (A") (A') (A')
                 (A') (A") (A') (A') (A') (A") (A") (A') (A') (A")
                 (A') (A') (A') (A") (A') (A') (A') (A') (A') (A")
                 (A') (A") (A') (A") (A') (A') (A') (A") (A") (A')
                 (A') (A") (A") (A") (A') (A') (A') (A') (A') (A")
                 (A') (A') (A") (A') (A') (A') (A') (A') (A') (A')
                 (A') (A') (A') (A') (A') (A") (A") (A') (A') (A")
                 (A") (A') (A') (A') (A')
  The electronic state is 1-A'.
 Alpha  occ. eigenvalues --  -89.00831 -88.93493 -24.76068 -24.73049 -14.37393
 Alpha  occ. eigenvalues --  -14.35073 -10.30047 -10.29936 -10.26905 -10.23444
 Alpha  occ. eigenvalues --  -10.22266 -10.22209  -8.06055  -7.99853  -6.02468
 Alpha  occ. eigenvalues --   -6.01995  -6.01791  -5.96457  -5.95802  -5.95090
 Alpha  occ. eigenvalues --   -1.28461  -1.24889  -1.01058  -0.91819  -0.90614
 Alpha  occ. eigenvalues --   -0.83185  -0.78496  -0.71836  -0.69984  -0.65191
 Alpha  occ. eigenvalues --   -0.60220  -0.57634  -0.54503  -0.53723  -0.51929
 Alpha  occ. eigenvalues --   -0.51859  -0.48456  -0.47807  -0.46702  -0.45229
 Alpha  occ. eigenvalues --   -0.43306  -0.41612  -0.39645  -0.38379  -0.36481
 Alpha  occ. eigenvalues --   -0.36066  -0.32459  -0.30617  -0.28773  -0.26704
 Alpha  occ. eigenvalues --   -0.19408
 Alpha virt. eigenvalues --   -0.11393  -0.03049  -0.00839   0.00099   0.03891
 Alpha virt. eigenvalues --    0.06868   0.08816   0.11318   0.11770   0.12994
 Alpha virt. eigenvalues --    0.13268   0.17904   0.23016   0.23765   0.26715
 Alpha virt. eigenvalues --    0.32513   0.34625   0.36853   0.38885   0.40585
 Alpha virt. eigenvalues --    0.41299   0.42425   0.43446   0.43499   0.45525
 Alpha virt. eigenvalues --    0.46189   0.46488   0.47264   0.48236   0.48275
 Alpha virt. eigenvalues --    0.48760   0.49550   0.50687   0.51211   0.55621
 Alpha virt. eigenvalues --    0.55992   0.57425   0.57542   0.60384   0.61344
 Alpha virt. eigenvalues --    0.62183   0.64696   0.65526   0.66028   0.69282
 Alpha virt. eigenvalues --    0.70618   0.73257   0.73347   0.76234   0.79867
 Alpha virt. eigenvalues --    0.81530   0.84060   0.84187   0.86137   0.89444
 Alpha virt. eigenvalues --    0.90569   0.90862   0.92884   0.93846   0.94667
 Alpha virt. eigenvalues --    0.95180   0.99991   1.01414   1.03264   1.06430
 Alpha virt. eigenvalues --    1.07094   1.08527   1.10055   1.11037   1.12623
 Alpha virt. eigenvalues --    1.16811   1.17305   1.19366   1.23476   1.25512
 Alpha virt. eigenvalues --    1.29177   1.29558   1.30432   1.38614   1.46250
 Alpha virt. eigenvalues --    1.47360   1.47852   1.48581   1.49715   1.51411
 Alpha virt. eigenvalues --    1.55114   1.58980   1.60275   1.62609   1.63478
 Alpha virt. eigenvalues --    1.64403   1.67039   1.67273   1.70590   1.71826
 Alpha virt. eigenvalues --    1.74584   1.81939   1.81979   1.82591   1.84492
 Alpha virt. eigenvalues --    1.86448   1.90782   1.92886   1.96680   2.00457
 Alpha virt. eigenvalues --    2.05254   2.07134   2.11504   2.16049   2.18226
 Alpha virt. eigenvalues --    2.18969   2.25979   2.28403   2.32145   2.37548
 Alpha virt. eigenvalues --    2.40690   2.42662   2.45419   2.46960   2.55753
 Alpha virt. eigenvalues --    2.59239   2.62905   2.72535   2.86649   3.17315
 Alpha virt. eigenvalues --    3.52129   3.55478   3.57135   3.59463   3.71919
 Alpha virt. eigenvalues --    3.76283   3.92665   3.97420   4.08190   4.23920
          Condensed to atoms (all electrons):
              1          2          3          4          5          6
  1  C    5.010470   0.201970   0.022712  -0.065643   0.049679   0.433201
  2  C    0.201970   5.691088   0.298049  -0.037291  -0.085081  -0.018777
  3  C    0.022712   0.298049   4.949542   0.370212   0.044007  -0.066220
  4  C   -0.065643  -0.037291   0.370212   5.077313   0.385453  -0.024996
  5  C    0.049679  -0.085081   0.044007   0.385453   4.745068   0.376196
  6  C    0.433201  -0.018777  -0.066220  -0.024996   0.376196   4.973015
  7  F    0.003566  -0.067214   0.372669  -0.037500   0.002650  -0.000024
  8  H   -0.001048   0.014992  -0.028050   0.349115  -0.036370   0.011413
  9  F    0.005341  -0.000166   0.004923  -0.046446   0.397755  -0.045312
 10  H   -0.028461   0.016199  -0.001296   0.011729  -0.044440   0.354999
 11  N    0.432743  -0.097030   0.006671   0.000279   0.003300  -0.040532
 12  S   -0.086249  -0.023366   0.003779  -0.000032   0.000051   0.000174
 13  N   -0.021470  -0.004099   0.004322  -0.000389   0.000017   0.000016
 14  S   -0.077345   0.264938  -0.139453   0.012165   0.000801   0.003299
              7          8          9         10         11         12
  1  C    0.003566  -0.001048   0.005341  -0.028461   0.432743  -0.086249
  2  C   -0.067214   0.014992  -0.000166   0.016199  -0.097030  -0.023366
  3  C    0.372669  -0.028050   0.004923  -0.001296   0.006671   0.003779
  4  C   -0.037500   0.349115  -0.046446   0.011729   0.000279  -0.000032
  5  C    0.002650  -0.036370   0.397755  -0.044440   0.003300   0.000051
  6  C   -0.000024   0.011413  -0.045312   0.354999  -0.040532   0.000174
  7  F    8.855850   0.001136  -0.000001   0.000003  -0.000012  -0.000054
  8  H    0.001136   0.686181  -0.000625  -0.000202   0.000006   0.000002
  9  F   -0.000001  -0.000625   8.832966  -0.000468  -0.000005   0.000000
 10  H    0.000003  -0.000202  -0.000468   0.691703  -0.000445  -0.000391
 11  N   -0.000012   0.000006  -0.000005  -0.000445   6.777867   0.383014
 12  S   -0.000054   0.000002   0.000000  -0.000391   0.383014  14.877605
 13  N    0.000317   0.000004   0.000000   0.000036  -0.034863   0.370076
 14  S    0.011776  -0.000588   0.000001  -0.000064  -0.008779  -0.067144
             13         14
  1  C   -0.021470  -0.077345
  2  C   -0.004099   0.264938
  3  C    0.004322  -0.139453
  4  C   -0.000389   0.012165
  5  C    0.000017   0.000801
  6  C    0.000016   0.003299
  7  F    0.000317   0.011776
  8  H    0.000004  -0.000588
  9  F    0.000000   0.000001
 10  H    0.000036  -0.000064
 11  N   -0.034863  -0.008779
 12  S    0.370076  -0.067144
 13  N    6.964467   0.177617
 14  S    0.177617  15.536004
 Total atomic charges:
              1
  1  C    0.120535
  2  C   -0.154211
  3  C    0.158132
  4  C    0.006033
  5  C    0.160914
  6  C    0.043547
  7  F   -0.143162
  8  H    0.004034
  9  F   -0.147964
 10  H    0.001099
 11  N   -0.422215
 12  S    0.542535
 13  N   -0.456051
 14  S    0.286773
 Sum of Mulliken charges=   0.00000
 Atomic charges with hydrogens summed into heavy atoms:
              1
  1  C    0.120535
  2  C   -0.154211
  3  C    0.158132
  4  C    0.010068
  5  C    0.160914
  6  C    0.044646
  7  F   -0.143162
  8  H    0.000000
  9  F   -0.147964
 10  H    0.000000
 11  N   -0.422215
 12  S    0.542535
 13  N   -0.456051
 14  S    0.286773
 Sum of Mulliken charges=   0.00000
 Electronic spatial extent (au):  <R**2>=  2334.6379
 Charge=     0.0000 electrons
 Dipole moment (Debye):
    X=     0.7536    Y=    -0.0265    Z=     0.0000  Tot=     0.7540
 Quadrupole moment (Debye-Ang):
   XX=   -79.8183   YY=   -81.1187   ZZ=   -79.3017
   XY=     3.6746   XZ=     0.0000   YZ=     0.0000
 Octapole moment (Debye-Ang**2):
  XXX=    15.4401  YYY=     5.5922  ZZZ=     0.0000  XYY=    11.6381
  XXY=     5.3721  XXZ=     0.0000  XZZ=     3.8848  YZZ=     1.6759
  YYZ=     0.0000  XYZ=     0.0000
 Hexadecapole moment (Debye-Ang**3):
 XXXX= -1823.3675 YYYY=  -923.7356 ZZZZ=   -81.1924 XXXY=   162.9845
 XXXZ=     0.0000 YYYX=    52.5261 YYYZ=     0.0000 ZZZX=     0.0000
 ZZZY=     0.0000 XXYY=  -473.8101 XXZZ=  -312.1251 YYZZ=  -172.9593
 XXYZ=     0.0000 YYXZ=     0.0000 ZZXY=    28.1832
 N-N= 8.956542599927D+02 E-N=-4.948660968725D+03  KE= 1.331143081185D+03
 Symmetry A'   KE= 1.231171872630D+03
 Symmetry A"   KE= 9.997120855461D+01
 ***** Axes restored to original set *****
 -------------------------------------------------------------------
 Center     Atomic                   Forces (Hartrees/Bohr)
 Number     Number              X              Y              Z
 -------------------------------------------------------------------
    1          6          -0.013847985    0.000000000    0.017200083
    2          6           0.120162551    0.000000000    0.003659623
    3          6           0.050083591    0.000000000   -0.069126764
    4          6           0.015894497    0.000000000    0.001233390
    5          6          -0.014761907    0.000000000    0.018898943
    6          6          -0.004728156    0.000000000   -0.006165498
    7          9           0.014619062    0.000000000    0.007797338
    8          1           0.001695862    0.000000000   -0.000098367
    9          9           0.000561784    0.000000000   -0.000395213
   10          1          -0.001558538    0.000000000   -0.000546128
   11          7           0.007755809    0.000000000   -0.031310256
   12         16          -0.014576701    0.000000000    0.004879451
   13          7          -0.037043207    0.000000000    0.001990146
   14         16          -0.124256661    0.000000000    0.051983252
 -------------------------------------------------------------------
 Cartesian Forces:  Max     0.124256661 RMS     0.032437499

 GradGradGradGradGradGradGradGradGradGradGradGradGradGradGradGradGradGrad
 Berny optimization.
 Internal  Forces:  Max     0.139411692 RMS     0.030320794
 Search for a local minimum.
 Step number   1 out of a maximum of  78
 All quantities printed in internal units (Hartrees-Bohrs-Radians)
 Second derivative matrix not updated -- first step.
     Eigenvalues ---    0.01969   0.02030   0.02089   0.02089   0.02089
     Eigenvalues ---    0.02089   0.02089   0.02089   0.02173   0.02274
     Eigenvalues ---    0.02676   0.16000   0.16000   0.23491   0.23532
     Eigenvalues ---    0.25000   0.25000   0.25000   0.25000   0.25000
     Eigenvalues ---    0.25000   0.34813   0.34813   0.35376   0.40488
     Eigenvalues ---    0.41770   0.44542   0.44930   0.45621   0.45621
     Eigenvalues ---    0.45621   0.46007   0.55628   0.56957   0.57205
     Eigenvalues ---    0.572051000.000001000.000001000.000001000.00000
     Eigenvalues --- 1000.000001000.000001000.000001000.000001000.00000
     Eigenvalues --- 1000.000001000.000001000.000001000.000001000.00000
     Eigenvalues --- 1000.000001000.000001000.000001000.000001000.00000
     Eigenvalues --- 1000.000001000.000001000.000001000.000001000.00000
     Eigenvalues --- 1000.000001000.000001000.000001000.000001000.00000
     Eigenvalues --- 1000.000001000.000001000.00000
 RFO step:  Lambda=-1.39436095D-01.
 Linear search not attempted -- first point.
 Maximum step size (   0.300) exceeded in Quadratic search.
    -- Step size scaled by   0.528
 Iteration  1 RMS(Cart)=  0.08291484 RMS(Int)=  0.00344181
 Iteration  2 RMS(Cart)=  0.00384609 RMS(Int)=  0.00045453
 Iteration  3 RMS(Cart)=  0.00002020 RMS(Int)=  0.00045441
 Iteration  4 RMS(Cart)=  0.00000000 RMS(Int)=  0.00045441
 Variable       Old X    -DE/DX   Delta X   Delta X   Delta X     New X
                                 (Linear)    (Quad)   (Total)
    R1        2.64562   0.01938   0.00000   0.02096   0.02202   2.66763
    R2        2.64562  -0.00557   0.00000  -0.00505  -0.00495   2.64067
    R3        2.64562   0.02143   0.00000   0.01936   0.01973   2.66534
    R4        2.64562   0.04405   0.00000   0.04080   0.04095   2.68656
    R5        3.07310   0.13617   0.00000   0.12122   0.12180   3.19491
    R6        2.64562  -0.00341   0.00000  -0.00291  -0.00302   2.64260
    R7        2.53223   0.00780   0.00000   0.00579   0.00579   2.53803
    R8        2.64562  -0.02095   0.00000  -0.02019  -0.02045   2.62516
    R9        2.05980   0.00142   0.00000   0.00154   0.00154   2.06134
   R10        2.64562  -0.00592   0.00000  -0.00697  -0.00712   2.63850
   R11        2.53223   0.00068   0.00000   0.00051   0.00051   2.53274
   R12        2.05980   0.00054   0.00000   0.00059   0.00059   2.06039
   R13        2.96687   0.01747   0.00000   0.01146   0.01106   2.97793
   R14        2.96687  -0.00134   0.00000  -0.00274  -0.00354   2.96333
   R15        3.21253   0.02710   0.00000   0.02810   0.02767   3.24020
    A1        2.09440   0.00733   0.00000   0.01078   0.01066   2.10505
    A2        2.00713   0.03534   0.00000   0.05129   0.05249   2.05962
    A3        2.18166  -0.04267   0.00000  -0.06208  -0.06315   2.11851
    A4        2.09440  -0.03556   0.00000  -0.04542  -0.04550   2.04890
    A5        2.52089  -0.10386   0.00000  -0.13732  -0.13614   2.38475
    A6        1.66790   0.13941   0.00000   0.18274   0.18164   1.84954
    A7        2.09440   0.02043   0.00000   0.03158   0.03188   2.12627
    A8        2.09440   0.00828   0.00000   0.00931   0.00916   2.10356
    A9        2.09440  -0.02871   0.00000  -0.04089  -0.04104   2.05335
   A10        2.09440  -0.00815   0.00000  -0.01340  -0.01352   2.08087
   A11        2.09440   0.00503   0.00000   0.00837   0.00844   2.10283
   A12        2.09440   0.00313   0.00000   0.00502   0.00509   2.09948
   A13        2.09440   0.00797   0.00000   0.00667   0.00650   2.10090
   A14        2.09440  -0.00392   0.00000  -0.00325  -0.00317   2.09123
   A15        2.09440  -0.00404   0.00000  -0.00342  -0.00333   2.09106
   A16        2.09440   0.00799   0.00000   0.00978   0.00998   2.10438
   A17        2.09440  -0.00559   0.00000  -0.00770  -0.00781   2.08659
   A18        2.09440  -0.00240   0.00000  -0.00207  -0.00218   2.09222
   A19        2.09440   0.02435   0.00000   0.03155   0.03193   2.12633
   A20        2.09440   0.00209   0.00000  -0.00504  -0.00671   2.08769
   A21        2.18166  -0.00960   0.00000  -0.01719  -0.01882   2.16284
   A22        1.66790   0.05168   0.00000   0.07671   0.07725   1.74515
    D1        0.00000   0.00000   0.00000   0.00000   0.00000   0.00000
    D2        3.14159   0.00000   0.00000   0.00000   0.00000   3.14159
    D3        3.14159   0.00000   0.00000   0.00000   0.00000   3.14159
    D4        0.00000   0.00000   0.00000   0.00000   0.00000   0.00000
    D5        0.00000   0.00000   0.00000   0.00000   0.00000   0.00000
    D6        3.14159   0.00000   0.00000   0.00000   0.00000   3.14159
    D7        3.14159   0.00000   0.00000   0.00000   0.00000   3.14159
    D8        0.00000   0.00000   0.00000   0.00000   0.00000   0.00000
    D9        0.00000   0.00000   0.00000   0.00000   0.00000   0.00000
   D10        3.14159   0.00000   0.00000   0.00000   0.00000   3.14159
   D11        0.00000   0.00000   0.00000   0.00000   0.00000   0.00000
   D12        3.14159   0.00000   0.00000   0.00000   0.00000   3.14159
   D13        3.14159   0.00000   0.00000   0.00000   0.00000   3.14159
   D14        0.00000   0.00000   0.00000   0.00000   0.00000   0.00000
   D15        0.00000   0.00000   0.00000   0.00000   0.00000   0.00000
   D16        3.14159   0.00000   0.00000   0.00000   0.00000   3.14159
   D17        0.00000   0.00000   0.00000   0.00000   0.00000   0.00000
   D18        3.14159   0.00000   0.00000   0.00000   0.00000   3.14159
   D19       -3.14159   0.00000   0.00000   0.00000   0.00000  -3.14159
   D20        0.00000   0.00000   0.00000   0.00000   0.00000   0.00000
   D21        0.00000   0.00000   0.00000   0.00000   0.00000   0.00000
   D22        3.14159   0.00000   0.00000   0.00000   0.00000   3.14159
   D23        3.14159   0.00000   0.00000   0.00000   0.00000   3.14159
   D24        0.00000   0.00000   0.00000   0.00000   0.00000   0.00000
   D25        0.00000   0.00000   0.00000   0.00000   0.00000   0.00000
   D26        3.14159   0.00000   0.00000   0.00000   0.00000   3.14159
   D27        3.14159   0.00000   0.00000   0.00000   0.00000   3.14159
   D28        0.00000   0.00000   0.00000   0.00000   0.00000   0.00000
   D29        0.00000   0.00000   0.00000   0.00000   0.00000   0.00000
   D30        0.00000   0.00000   0.00000   0.00000   0.00000   0.00000
   D31        0.00000   0.00000   0.00000   0.00000   0.00000   0.00000
         Item               Value     Threshold  Converged?
 Maximum Force            0.139412     0.000450     NO 
 RMS     Force            0.030321     0.000300     NO 
 Maximum Displacement     0.342114     0.001800     NO 
 RMS     Displacement     0.084320     0.001200     NO 
 Predicted change in Energy=-1.321369D-02
 GradGradGradGradGradGradGradGradGradGradGradGradGradGradGradGradGradGrad

                          Input orientation:                          
 ---------------------------------------------------------------------
 Center     Atomic     Atomic              Coordinates (Angstroms)
 Number     Number      Type              X           Y           Z
 ---------------------------------------------------------------------
    1          6             0       -0.086655    0.000000   -0.991812
    2          6             0       -0.072439    0.000000    0.419767
    3          6             0        1.196340    0.000000    1.061126
    4          6             0        2.390492    0.000000    0.333436
    5          6             0        2.338810    0.000000   -1.054780
    6          6             0        1.108771    0.000000   -1.715437
    7          9             0        1.283214    0.000000    2.401379
    8          1             0        3.352197    0.000000    0.848219
    9          9             0        3.476034    0.000000   -1.764035
   10          1             0        1.077663    0.000000   -2.805305
   11          7             0       -1.338521    0.000000   -1.641560
   12         16             0       -2.692957    0.000000   -0.836072
   13          7             0       -2.662185    0.000000    0.731754
   14         16             0       -1.220872    0.000000    1.660521
 ---------------------------------------------------------------------
                    Distance matrix (angstroms):
                    1          2          3          4          5
     1  C    0.000000
     2  C    1.411651   0.000000
     3  C    2.420874   1.421669   0.000000
     4  C    2.809366   2.464444   1.398403   0.000000
     5  C    2.426283   2.826378   2.404640   1.389177   0.000000
     6  C    1.397383   2.440155   2.777943   2.416752   1.396232
     7  F    3.659274   2.400954   1.343066   2.345731   3.613767
     8  H    3.900181   3.451333   2.166344   1.090815   2.156004
     9  F    3.645419   4.166612   3.630225   2.361733   1.340269
    10  H    2.155086   3.424008   3.868252   3.402237   2.157506
    11  N    1.410440   2.419098   3.705406   4.219733   3.723852
    12  S    2.610950   2.905898   4.327354   5.216244   5.036518
    13  N    3.099037   2.608471   3.872558   5.068353   5.310523
    14  S    2.884670   1.690671   2.490420   3.847480   4.477075
                    6          7          8          9         10
     6  C    0.000000
     7  F    4.120510   0.000000
     8  H    3.406654   2.587082   0.000000
     9  F    2.367761   4.707348   2.615187   0.000000
    10  H    1.090312   5.210740   4.303689   2.614656   0.000000
    11  N    2.448407   4.818594   5.310539   4.816112   2.681837
    12  S    3.902104   5.127477   6.275406   6.238394   4.253875
    13  N    4.495426   4.284136   6.015509   6.626213   5.147548
    14  S    4.101748   2.611382   4.644652   5.812788   5.022636
                   11         12         13         14
    11  N    0.000000
    12  S    1.575851   0.000000
    13  N    2.717482   1.568128   0.000000
    14  S    3.304177   2.898278   1.714641   0.000000
 Stoichiometry    C6H2F2N2S2
 Framework group  CS[SG(C6H2F2N2S2)]
 Deg. of freedom   25
 Full point group                 CS      NOp   2
 Largest Abelian subgroup         CS      NOp   2
 Largest concise Abelian subgroup C1      NOp   1
                         Standard orientation:                         
 ---------------------------------------------------------------------
 Center     Atomic     Atomic              Coordinates (Angstroms)
 Number     Number      Type              X           Y           Z
 ---------------------------------------------------------------------
    1          6             0       -0.182596   -0.966291    0.000000
    2          6             0        0.000000    0.433500    0.000000
    3          6             0        1.336260    0.918836    0.000000
    4          6             0        2.435020    0.053818    0.000000
    5          6             0        2.218015   -1.318305    0.000000
    6          6             0        0.917915   -1.827426    0.000000
    7          9             0        1.582481    2.239139    0.000000
    8          1             0        3.451293    0.450135    0.000000
    9          9             0        3.262455   -2.158225    0.000000
   10          1             0        0.756946   -2.905790    0.000000
   11          7             0       -1.503064   -1.461976    0.000000
   12         16             0       -2.751678   -0.500586    0.000000
   13          7             0       -2.533995    1.052360    0.000000
   14         16             0       -0.992131    1.802458    0.000000
 ---------------------------------------------------------------------
 Rotational constants (GHZ):      1.2696061      0.5905024      0.4030440
 Isotopes: C-12,C-12,C-12,C-12,C-12,C-12,F-19,H-1,F-19,H-1,N-14,S-32,N-14,S-32
 Standard basis: CC-pVDZ (5D, 7F)
 There are   134 symmetry adapted basis functions of A'  symmetry.
 There are    52 symmetry adapted basis functions of A"  symmetry.
 Crude estimate of integral set expansion from redundant integrals=1.000.
 Integral buffers will be    262144 words long.
 Raffenetti 2 integral format.
 Two-electron integral symmetry is turned on.
   186 basis functions      534 primitive gaussians
    51 alpha electrons       51 beta electrons
       nuclear repulsion energy       880.8907778868 Hartrees.
 One-electron integrals computed using PRISM.
 NBasis=   186 RedAO= T  NBF=   134    52
 NBsUse=   186 1.00D-04 NBFU=   134    52
 Initial guess read from the read-write file:
 Initial guess orbital symmetries:
       Occupied  (A') (A') (A') (A') (A') (A') (A') (A') (A') (A')
                 (A') (A') (A') (A') (A') (A") (A') (A') (A') (A")
                 (A') (A') (A') (A') (A') (A') (A') (A') (A') (A')
                 (A') (A') (A') (A') (A') (A") (A") (A') (A') (A")
                 (A') (A') (A') (A") (A') (A") (A') (A") (A') (A")
                 (A")
       Virtual   (A") (A") (A') (A") (A') (A') (A') (A') (A') (A')
                 (A") (A') (A') (A') (A') (A') (A') (A') (A') (A')
                 (A") (A') (A") (A') (A') (A") (A') (A') (A') (A")
                 (A') (A") (A") (A') (A") (A') (A') (A") (A") (A')
                 (A") (A') (A") (A') (A') (A') (A') (A") (A') (A')
                 (A') (A") (A') (A') (A") (A') (A") (A') (A") (A')
                 (A') (A") (A') (A') (A') (A") (A') (A") (A') (A')
                 (A') (A") (A') (A') (A') (A") (A") (A') (A') (A")
                 (A') (A') (A') (A") (A') (A') (A') (A') (A') (A")
                 (A') (A") (A') (A") (A') (A') (A') (A") (A") (A')
                 (A') (A") (A") (A") (A') (A') (A') (A') (A') (A")
                 (A') (A') (A") (A') (A') (A') (A') (A') (A') (A')
                 (A') (A') (A') (A') (A') (A") (A") (A') (A') (A")
                 (A") (A') (A') (A') (A')
 Requested convergence on RMS density matrix=1.00D-08 within  64 cycles.
 Requested convergence on MAX density matrix=1.00D-06.
 Integral accuracy reduced to 1.0D-05 until final iterations.
 Initial convergence to 1.0D-05 achieved.  Increase integral accuracy.
 SCF Done:  E(RB+HF-LYP) =  -1335.35420873     A.U. after   16 cycles
             Convg  =    0.6634D-08             -V/T =  2.0035
             S**2   =   0.0000
 ***** Axes restored to original set *****
 -------------------------------------------------------------------
 Center     Atomic                   Forces (Hartrees/Bohr)
 Number     Number              X              Y              Z
 -------------------------------------------------------------------
    1          6          -0.016951166    0.000000000    0.016482301
    2          6           0.092599122    0.000000000    0.008546942
    3          6           0.002735048    0.000000000   -0.039708891
    4          6           0.010375736    0.000000000   -0.000143622
    5          6          -0.009702023    0.000000000    0.011685922
    6          6          -0.004133634    0.000000000   -0.008155086
    7          9          -0.004141896    0.000000000    0.003747211
    8          1          -0.000401866    0.000000000    0.000726951
    9          9           0.000830348    0.000000000   -0.001289614
   10          1          -0.001551167    0.000000000   -0.000221411
   11          7           0.006570365    0.000000000   -0.019336081
   12         16          -0.002517702    0.000000000   -0.003278946
   13          7          -0.016193166    0.000000000    0.008242482
   14         16          -0.057517999    0.000000000    0.022701842
 -------------------------------------------------------------------
 Cartesian Forces:  Max     0.092599122 RMS     0.019418683

 GradGradGradGradGradGradGradGradGradGradGradGradGradGradGradGradGradGrad
 Berny optimization.
 Internal  Forces:  Max     0.065689672 RMS     0.012569877
 Search for a local minimum.
 Step number   2 out of a maximum of  78
 All quantities printed in internal units (Hartrees-Bohrs-Radians)
 Update second derivatives using information from points  1  2
 Trust test= 3.65D+00 RLast= 3.00D-01 DXMaxT set to 4.24D-01
 Maximum step size (   0.424) exceeded in linear search.
    -- Step size scaled by   0.780
 Quartic linear search produced a step of  1.41454.
 Iteration  1 RMS(Cart)=  0.10596299 RMS(Int)=  0.00886528
 Iteration  2 RMS(Cart)=  0.01491213 RMS(Int)=  0.00150737
 Iteration  3 RMS(Cart)=  0.00024996 RMS(Int)=  0.00149909
 Iteration  4 RMS(Cart)=  0.00000024 RMS(Int)=  0.00149909
 Variable       Old X    -DE/DX   Delta X   Delta X   Delta X     New X
                                 (Linear)    (Quad)   (Total)
    R1        2.66763   0.00432   0.03114   0.00000   0.03456   2.70219
    R2        2.64067  -0.00411  -0.00700   0.00000  -0.00668   2.63399
    R3        2.66534   0.00683   0.02791   0.00000   0.02901   2.69435
    R4        2.68656  -0.01169   0.05792   0.00000   0.05844   2.74500
    R5        3.19491   0.06569   0.17230   0.00000   0.17402   3.36892
    R6        2.64260  -0.00118  -0.00427   0.00000  -0.00459   2.63800
    R7        2.53803   0.00347   0.00819   0.00000   0.00819   2.54622
    R8        2.62516  -0.00622  -0.02893   0.00000  -0.02983   2.59533
    R9        2.06134  -0.00001   0.00218   0.00000   0.00218   2.06352
   R10        2.63850   0.00025  -0.01007   0.00000  -0.01063   2.62786
   R11        2.53274   0.00139   0.00072   0.00000   0.00072   2.53346
   R12        2.06039   0.00027   0.00083   0.00000   0.00083   2.06123
   R13        2.97793   0.00674   0.01564   0.00000   0.01438   2.99230
   R14        2.96333   0.00645  -0.00500   0.00000  -0.00754   2.95579
   R15        3.24020   0.00982   0.03914   0.00000   0.03783   3.27803
    A1        2.10505  -0.00108   0.01508   0.00000   0.01477   2.11982
    A2        2.05962   0.02217   0.07425   0.00000   0.07804   2.13765
    A3        2.11851  -0.02109  -0.08933   0.00000  -0.09280   2.02571
    A4        2.04890  -0.00373  -0.06436   0.00000  -0.06463   1.98427
    A5        2.38475  -0.04386  -0.19258   0.00000  -0.18840   2.19634
    A6        1.84954   0.04759   0.25693   0.00000   0.25303   2.10257
    A7        2.12627   0.00950   0.04509   0.00000   0.04615   2.17242
    A8        2.10356  -0.01030   0.01296   0.00000   0.01243   2.11599
    A9        2.05335   0.00080  -0.05805   0.00000  -0.05858   1.99478
   A10        2.08087  -0.00808  -0.01913   0.00000  -0.01957   2.06130
   A11        2.10283   0.00318   0.01194   0.00000   0.01216   2.11499
   A12        2.09948   0.00489   0.00719   0.00000   0.00742   2.10690
   A13        2.10090   0.00467   0.00919   0.00000   0.00855   2.10945
   A14        2.09123  -0.00150  -0.00448   0.00000  -0.00416   2.08707
   A15        2.09106  -0.00317  -0.00472   0.00000  -0.00440   2.08667
   A16        2.10438  -0.00129   0.01412   0.00000   0.01473   2.11911
   A17        2.08659  -0.00095  -0.01104   0.00000  -0.01135   2.07524
   A18        2.09222   0.00223  -0.00308   0.00000  -0.00338   2.08883
   A19        2.12633   0.00438   0.04517   0.00000   0.04627   2.17259
   A20        2.08769   0.00368  -0.00949   0.00000  -0.01498   2.07271
   A21        2.16284  -0.00676  -0.02662   0.00000  -0.03197   2.13087
   A22        1.74515   0.02040   0.10927   0.00000   0.11105   1.85621
    D1        0.00000   0.00000   0.00000   0.00000   0.00000   0.00000
    D2        3.14159   0.00000   0.00000   0.00000   0.00000   3.14159
    D3        3.14159   0.00000   0.00000   0.00000   0.00000   3.14159
    D4        0.00000   0.00000   0.00000   0.00000   0.00000   0.00000
    D5        0.00000   0.00000   0.00000   0.00000   0.00000   0.00000
    D6        3.14159   0.00000   0.00000   0.00000   0.00000   3.14159
    D7        3.14159   0.00000   0.00000   0.00000   0.00000   3.14159
    D8        0.00000   0.00000   0.00000   0.00000   0.00000   0.00000
    D9        0.00000   0.00000   0.00000   0.00000   0.00000   0.00000
   D10        3.14159   0.00000   0.00000   0.00000   0.00000   3.14159
   D11        0.00000   0.00000   0.00000   0.00000   0.00000   0.00000
   D12        3.14159   0.00000   0.00000   0.00000   0.00000   3.14159
   D13        3.14159   0.00000   0.00000   0.00000   0.00000   3.14159
   D14        0.00000   0.00000   0.00000   0.00000   0.00000   0.00000
   D15        0.00000   0.00000   0.00000   0.00000   0.00000   0.00000
   D16        3.14159   0.00000   0.00000   0.00000   0.00000   3.14159
   D17        0.00000   0.00000   0.00000   0.00000   0.00000   0.00000
   D18       -3.14159   0.00000   0.00000   0.00000   0.00000  -3.14159
   D19        3.14159   0.00000   0.00000   0.00000   0.00000   3.14159
   D20        0.00000   0.00000   0.00000   0.00000   0.00000   0.00000
   D21        0.00000   0.00000   0.00000   0.00000   0.00000   0.00000
   D22        3.14159   0.00000   0.00000   0.00000   0.00000   3.14159
   D23        3.14159   0.00000   0.00000   0.00000   0.00000   3.14159
   D24        0.00000   0.00000   0.00000   0.00000   0.00000   0.00000
   D25        0.00000   0.00000   0.00000   0.00000   0.00000   0.00000
   D26        3.14159   0.00000   0.00000   0.00000   0.00000   3.14159
   D27        3.14159   0.00000   0.00000   0.00000   0.00000   3.14159
   D28        0.00000   0.00000   0.00000   0.00000   0.00000   0.00000
   D29        0.00000   0.00000   0.00000   0.00000   0.00000   0.00000
   D30        0.00000   0.00000   0.00000   0.00000   0.00000   0.00000
   D31        0.00000   0.00000   0.00000   0.00000   0.00000   0.00000
         Item               Value     Threshold  Converged?
 Maximum Force            0.065690     0.000450     NO 
 RMS     Force            0.012570     0.000300     NO 
 Maximum Displacement     0.448029     0.001800     NO 
 RMS     Displacement     0.118132     0.001200     NO 
 Predicted change in Energy=-4.581283D-02
 GradGradGradGradGradGradGradGradGradGradGradGradGradGradGradGradGradGrad

                          Input orientation:                          
 ---------------------------------------------------------------------
 Center     Atomic     Atomic              Coordinates (Angstroms)
 Number     Number      Type              X           Y           Z
 ---------------------------------------------------------------------
    1          6             0       -0.059389    0.000000   -0.878922
    2          6             0       -0.020787    0.000000    0.550495
    3          6             0        1.324667    0.000000    1.098018
    4          6             0        2.490280    0.000000    0.329848
    5          6             0        2.363843    0.000000   -1.037710
    6          6             0        1.109543    0.000000   -1.638140
    7          9             0        1.537625    0.000000    2.428484
    8          1             0        3.476415    0.000000    0.798817
    9          9             0        3.463879    0.000000   -1.804039
   10          1             0        1.031536    0.000000   -2.726100
   11          7             0       -1.282404    0.000000   -1.611800
   12         16             0       -2.722281    0.000000   -0.952939
   13          7             0       -2.836002    0.000000    0.607059
   14         16             0       -1.437261    0.000000    1.633003
 ---------------------------------------------------------------------
                    Distance matrix (angstroms):
                    1          2          3          4          5
     1  C    0.000000
     2  C    1.429938   0.000000
     3  C    2.413276   1.452594   0.000000
     4  C    2.821690   2.520743   1.395972   0.000000
     5  C    2.428429   2.865110   2.375125   1.373390   0.000000
     6  C    1.393849   2.463284   2.744601   2.404040   1.390606
     7  F    3.672791   2.440388   1.347402   2.304740   3.563305
     8  H    3.913657   3.506007   2.172449   1.091968   2.147242
     9  F    3.642699   4.205559   3.605296   2.345499   1.340649
    10  H    2.145271   3.441433   3.835337   3.386259   2.150745
    11  N    1.425790   2.503437   3.760311   4.243011   3.691165
    12  S    2.663920   3.091663   4.536983   5.368084   5.086830
    13  N    3.149241   2.815783   4.189536   5.333491   5.453774
    14  S    2.865012   1.782756   2.813264   4.138090   4.645546
                    6          7          8          9         10
     6  C    0.000000
     7  F    4.089094   0.000000
     8  H    3.397181   2.532730   0.000000
     9  F    2.360174   4.650237   2.602886   0.000000
    10  H    1.090754   5.179370   4.289810   2.601247   0.000000
    11  N    2.392092   4.927115   5.334551   4.750175   2.568265
    12  S    3.892605   5.438826   6.441465   6.244433   4.151536
    13  N    4.539630   4.737743   6.315329   6.745509   5.105664
    14  S    4.145670   3.079405   4.983981   5.986186   5.009665
                   11         12         13         14
    11  N    0.000000
    12  S    1.583459   0.000000
    13  N    2.708690   1.564137   0.000000
    14  S    3.248496   2.887624   1.734658   0.000000
 Stoichiometry    C6H2F2N2S2
 Framework group  CS[SG(C6H2F2N2S2)]
 Deg. of freedom   25
 Full point group                 CS      NOp   2
 Largest Abelian subgroup         CS      NOp   2
 Largest concise Abelian subgroup C1      NOp   1
                         Standard orientation:                         
 ---------------------------------------------------------------------
 Center     Atomic     Atomic              Coordinates (Angstroms)
 Number     Number      Type              X           Y           Z
 ---------------------------------------------------------------------
    1          6             0       -0.026520   -0.860374    0.000000
    2          6             0        0.000000    0.569318    0.000000
    3          6             0        1.340779    1.128192    0.000000
    4          6             0        2.512842    0.369901    0.000000
    5          6             0        2.397968   -0.998677    0.000000
    6          6             0        1.148787   -1.609686    0.000000
    7          9             0        1.542485    2.460411    0.000000
    8          1             0        3.494978    0.847187    0.000000
    9          9             0        3.504441   -1.755681    0.000000
   10          1             0        1.079978   -2.698267    0.000000
   11          7             0       -1.243298   -1.603562    0.000000
   12         16             0       -2.688691   -0.956893    0.000000
   13          7             0       -2.815592    0.602087    0.000000
   14         16             0       -1.425571    1.639816    0.000000
 ---------------------------------------------------------------------
 Rotational constants (GHZ):      1.2486476      0.5560338      0.3847162
 Isotopes: C-12,C-12,C-12,C-12,C-12,C-12,F-19,H-1,F-19,H-1,N-14,S-32,N-14,S-32
 Standard basis: CC-pVDZ (5D, 7F)
 There are   134 symmetry adapted basis functions of A'  symmetry.
 There are    52 symmetry adapted basis functions of A"  symmetry.
 Crude estimate of integral set expansion from redundant integrals=1.000.
 Integral buffers will be    262144 words long.
 Raffenetti 2 integral format.
 Two-electron integral symmetry is turned on.
   186 basis functions      534 primitive gaussians
    51 alpha electrons       51 beta electrons
       nuclear repulsion energy       864.9036726951 Hartrees.
 One-electron integrals computed using PRISM.
 NBasis=   186 RedAO= T  NBF=   134    52
 NBsUse=   186 1.00D-04 NBFU=   134    52
 Initial guess read from the read-write file:
 Initial guess orbital symmetries:
       Occupied  (A') (A') (A') (A') (A') (A') (A') (A') (A') (A')
                 (A') (A') (A') (A') (A') (A") (A') (A') (A') (A")
                 (A') (A') (A') (A') (A') (A') (A') (A') (A') (A')
                 (A') (A') (A') (A') (A') (A") (A") (A') (A') (A")
                 (A') (A') (A') (A") (A') (A") (A') (A") (A') (A")
                 (A")
       Virtual   (A") (A") (A') (A") (A') (A') (A') (A') (A') (A')
                 (A") (A') (A') (A') (A') (A') (A') (A') (A') (A')
                 (A") (A') (A") (A') (A') (A") (A') (A') (A') (A')
                 (A") (A") (A') (A") (A') (A") (A') (A") (A") (A')
                 (A") (A') (A") (A') (A') (A') (A') (A") (A') (A')
                 (A') (A') (A") (A') (A") (A') (A") (A') (A') (A")
                 (A') (A") (A') (A') (A') (A') (A") (A") (A') (A')
                 (A') (A") (A') (A') (A') (A") (A") (A') (A') (A')
                 (A") (A') (A') (A") (A') (A') (A') (A') (A') (A')
                 (A") (A") (A') (A") (A') (A') (A') (A") (A") (A')
                 (A') (A") (A") (A") (A') (A') (A') (A') (A') (A")
                 (A') (A') (A") (A') (A') (A') (A') (A') (A') (A')
                 (A') (A') (A') (A') (A') (A") (A") (A') (A') (A")
                 (A") (A') (A') (A') (A')
 Requested convergence on RMS density matrix=1.00D-08 within  64 cycles.
 Requested convergence on MAX density matrix=1.00D-06.
 Integral accuracy reduced to 1.0D-05 until final iterations.
 Initial convergence to 1.0D-05 achieved.  Increase integral accuracy.
 SCF Done:  E(RB+HF-LYP) =  -1335.36650201     A.U. after   15 cycles
             Convg  =    0.9599D-08             -V/T =  2.0037
             S**2   =   0.0000
 ***** Axes restored to original set *****
 -------------------------------------------------------------------
 Center     Atomic                   Forces (Hartrees/Bohr)
 Number     Number              X              Y              Z
 -------------------------------------------------------------------
    1          6          -0.018339556    0.000000000    0.013587378
    2          6           0.061700786    0.000000000   -0.008149447
    3          6          -0.034717316    0.000000000   -0.007404586
    4          6           0.003964315    0.000000000    0.000808158
    5          6          -0.003472035    0.000000000   -0.000780074
    6          6          -0.002878115    0.000000000   -0.010897014
    7          9          -0.011657802    0.000000000    0.003669870
    8          1          -0.002927303    0.000000000    0.001970791
    9          9           0.001304571    0.000000000   -0.002432764
   10          1          -0.001356867    0.000000000    0.000297904
   11          7           0.003826937    0.000000000   -0.005489212
   12         16           0.010799385    0.000000000   -0.012583237
   13          7           0.003298646    0.000000000    0.015535621
   14         16          -0.009545646    0.000000000    0.011866614
 -------------------------------------------------------------------
 Cartesian Forces:  Max     0.061700786 RMS     0.012710913

 GradGradGradGradGradGradGradGradGradGradGradGradGradGradGradGradGradGrad
 Berny optimization.
 Internal  Forces:  Max     0.048389318 RMS     0.008171344
 Search for a local minimum.
 Step number   3 out of a maximum of  78
 All quantities printed in internal units (Hartrees-Bohrs-Radians)
 Update second derivatives using information from points  2  3
     Eigenvalues ---    0.01948   0.02030   0.02089   0.02089   0.02089
     Eigenvalues ---    0.02089   0.02089   0.02089   0.02149   0.02260
     Eigenvalues ---    0.02685   0.15976   0.16002   0.22420   0.23509
     Eigenvalues ---    0.23872   0.25000   0.25000   0.25000   0.25000
     Eigenvalues ---    0.26557   0.34813   0.34818   0.35409   0.39370
     Eigenvalues ---    0.41511   0.42935   0.44741   0.45465   0.45621
     Eigenvalues ---    0.45621   0.47317   0.55657   0.57166   0.57202
     Eigenvalues ---    0.574691000.000001000.000001000.000001000.00000
     Eigenvalues --- 1000.000001000.000001000.000001000.000001000.00000
     Eigenvalues --- 1000.000001000.000001000.000001000.000001000.00000
     Eigenvalues --- 1000.000001000.000001000.000001000.000001000.00000
     Eigenvalues --- 1000.000001000.000001000.000001000.000001000.00000
     Eigenvalues --- 1000.000001000.000001000.000001000.000001000.00000
     Eigenvalues --- 1000.000001000.000001000.00000
 RFO step:  Lambda=-8.81182149D-03.
 Quartic linear search produced a step of -0.25328.
 Iteration  1 RMS(Cart)=  0.04577122 RMS(Int)=  0.00109804
 Iteration  2 RMS(Cart)=  0.00125485 RMS(Int)=  0.00020207
 Iteration  3 RMS(Cart)=  0.00000065 RMS(Int)=  0.00020207
 Variable       Old X    -DE/DX   Delta X   Delta X   Delta X     New X
                                 (Linear)    (Quad)   (Total)
    R1        2.70219  -0.00549  -0.00875  -0.00746  -0.01643   2.68576
    R2        2.63399  -0.00102   0.00169  -0.00308  -0.00131   2.63268
    R3        2.69435  -0.00839  -0.00735  -0.00948  -0.01696   2.67739
    R4        2.74500  -0.04839  -0.01480  -0.08499  -0.09978   2.64522
    R5        3.36892   0.01084  -0.04407   0.05861   0.01430   3.38323
    R6        2.63800   0.00257   0.00116   0.00232   0.00341   2.64141
    R7        2.54622   0.00178  -0.00208   0.00413   0.00205   2.54827
    R8        2.59533   0.00994   0.00756   0.01362   0.02108   2.61641
    R9        2.06352  -0.00180  -0.00055  -0.00371  -0.00426   2.05926
   R10        2.62786   0.00317   0.00269   0.00784   0.01053   2.63839
   R11        2.53346   0.00246  -0.00018   0.00379   0.00361   2.53707
   R12        2.06123  -0.00020  -0.00021  -0.00021  -0.00042   2.06080
   R13        2.99230  -0.00674  -0.00364  -0.00552  -0.00899   2.98332
   R14        2.95579   0.01447   0.00191   0.02117   0.02340   2.97919
   R15        3.27803  -0.00547  -0.00958  -0.00254  -0.01196   3.26607
    A1        2.11982  -0.00329  -0.00374  -0.01065  -0.01404   2.10578
    A2        2.13765   0.00950  -0.01976   0.04800   0.02766   2.16531
    A3        2.02571  -0.00621   0.02350  -0.03735  -0.01361   2.01210
    A4        1.98427   0.01673   0.01637   0.03515   0.05185   2.03612
    A5        2.19634   0.00165   0.04772  -0.03484   0.01223   2.20858
    A6        2.10257  -0.01838  -0.06409  -0.00031  -0.06409   2.03849
    A7        2.17242  -0.00175  -0.01169  -0.00185  -0.01371   2.15871
    A8        2.11599  -0.01452  -0.00315  -0.04869  -0.05175   2.06424
    A9        1.99478   0.01627   0.01484   0.05054   0.06546   2.06024
   A10        2.06130  -0.00242   0.00496  -0.01393  -0.00925   2.05205
   A11        2.11499  -0.00193  -0.00308  -0.00823  -0.01117   2.10382
   A12        2.10690   0.00434  -0.00188   0.02216   0.02042   2.12732
   A13        2.10945  -0.00062  -0.00217   0.01235   0.00998   2.11943
   A14        2.08707   0.00189   0.00105  -0.00080   0.00035   2.08742
   A15        2.08667  -0.00127   0.00111  -0.01155  -0.01033   2.07633
   A16        2.11911  -0.00866  -0.00373  -0.02107  -0.02483   2.09428
   A17        2.07524   0.00291   0.00287   0.00199   0.00488   2.08012
   A18        2.08883   0.00574   0.00086   0.01908   0.01995   2.10878
   A19        2.17259  -0.00963  -0.01172  -0.02801  -0.03976   2.13283
   A20        2.07271   0.00529   0.00379   0.01605   0.02061   2.09331
   A21        2.13087   0.00071   0.00810  -0.00359   0.00522   2.13608
   A22        1.85621  -0.00751  -0.02813   0.00238  -0.02595   1.83025
    D1        0.00000   0.00000   0.00000   0.00000   0.00000   0.00000
    D2        3.14159   0.00000   0.00000   0.00000   0.00000   3.14159
    D3        3.14159   0.00000   0.00000   0.00000   0.00000   3.14159
    D4        0.00000   0.00000   0.00000   0.00000   0.00000   0.00000
    D5        0.00000   0.00000   0.00000   0.00000   0.00000   0.00000
    D6        3.14159   0.00000   0.00000   0.00000   0.00000   3.14159
    D7        3.14159   0.00000   0.00000   0.00000   0.00000   3.14159
    D8        0.00000   0.00000   0.00000   0.00000   0.00000   0.00000
    D9        0.00000   0.00000   0.00000   0.00000   0.00000   0.00000
   D10        3.14159   0.00000   0.00000   0.00000   0.00000   3.14159
   D11        0.00000   0.00000   0.00000   0.00000   0.00000   0.00000
   D12        3.14159   0.00000   0.00000   0.00000   0.00000   3.14159
   D13        3.14159   0.00000   0.00000   0.00000   0.00000   3.14159
   D14        0.00000   0.00000   0.00000   0.00000   0.00000   0.00000
   D15        0.00000   0.00000   0.00000   0.00000   0.00000   0.00000
   D16       -3.14159   0.00000   0.00000   0.00000   0.00000  -3.14159
   D17        0.00000   0.00000   0.00000   0.00000   0.00000   0.00000
   D18        3.14159   0.00000   0.00000   0.00000   0.00000   3.14159
   D19        3.14159   0.00000   0.00000   0.00000   0.00000   3.14159
   D20        0.00000   0.00000   0.00000   0.00000   0.00000   0.00000
   D21        0.00000   0.00000   0.00000   0.00000   0.00000   0.00000
   D22        3.14159   0.00000   0.00000   0.00000   0.00000   3.14159
   D23        3.14159   0.00000   0.00000   0.00000   0.00000   3.14159
   D24        0.00000   0.00000   0.00000   0.00000   0.00000   0.00000
   D25        0.00000   0.00000   0.00000   0.00000   0.00000   0.00000
   D26        3.14159   0.00000   0.00000   0.00000   0.00000   3.14159
   D27        3.14159   0.00000   0.00000   0.00000   0.00000   3.14159
   D28        0.00000   0.00000   0.00000   0.00000   0.00000   0.00000
   D29        0.00000   0.00000   0.00000   0.00000   0.00000   0.00000
   D30        0.00000   0.00000   0.00000   0.00000   0.00000   0.00000
   D31        0.00000   0.00000   0.00000   0.00000   0.00000   0.00000
         Item               Value     Threshold  Converged?
 Maximum Force            0.048389     0.000450     NO 
 RMS     Force            0.008171     0.000300     NO 
 Maximum Displacement     0.253038     0.001800     NO 
 RMS     Displacement     0.046152     0.001200     NO 
 Predicted change in Energy=-5.877114D-03
 GradGradGradGradGradGradGradGradGradGradGradGradGradGradGradGradGradGrad

                          Input orientation:                          
 ---------------------------------------------------------------------
 Center     Atomic     Atomic              Coordinates (Angstroms)
 Number     Number      Type              X           Y           Z
 ---------------------------------------------------------------------
    1          6             0       -0.030551    0.000000   -0.877584
    2          6             0        0.041685    0.000000    0.541821
    3          6             0        1.322952    0.000000    1.105534
    4          6             0        2.500944    0.000000    0.353131
    5          6             0        2.380429    0.000000   -1.026161
    6          6             0        1.130302    0.000000   -1.647843
    7          9             0        1.429322    0.000000    2.449821
    8          1             0        3.472809    0.000000    0.846032
    9          9             0        3.485619    0.000000   -1.788409
   10          1             0        1.046955    0.000000   -2.735184
   11          7             0       -1.243085    0.000000   -1.610471
   12         16             0       -2.654099    0.000000   -0.902413
   13          7             0       -2.744578    0.000000    0.671506
   14         16             0       -1.340658    0.000000    1.679536
 ---------------------------------------------------------------------
                    Distance matrix (angstroms):
                    1          2          3          4          5
     1  C    0.000000
     2  C    1.421242   0.000000
     3  C    2.400984   1.399792   0.000000
     4  C    2.814805   2.466487   1.397776   0.000000
     5  C    2.415553   2.815722   2.379576   1.384547   0.000000
     6  C    1.393155   2.445346   2.760109   2.425398   1.396175
     7  F    3.633573   2.359237   1.348489   2.354673   3.603756
     8  H    3.904405   3.444583   2.165462   1.089712   2.167579
     9  F    3.632224   4.158203   3.612760   2.357070   1.342560
    10  H    2.147486   3.427730   3.850622   3.413469   2.167698
    11  N    1.416815   2.506591   3.736473   4.227705   3.670323
    12  S    2.623665   3.058278   4.455197   5.305738   5.036048
    13  N    3.124999   2.789280   4.090621   5.255175   5.398867
    14  S    2.873193   1.790326   2.724756   4.064143   4.600792
                    6          7          8          9         10
     6  C    0.000000
     7  F    4.108560   0.000000
     8  H    3.421513   2.597688   0.000000
     9  F    2.359507   4.710728   2.634472   0.000000
    10  H    1.090531   5.199085   4.325491   2.616002   0.000000
    11  N    2.373681   4.860837   5.317336   4.732050   2.551325
    12  S    3.857118   5.283162   6.371503   6.203315   4.129993
    13  N    4.515980   4.536942   6.219836   6.698249   5.097181
    14  S    4.144526   2.875088   4.885099   5.943029   5.019009
                   11         12         13         14
    11  N    0.000000
    12  S    1.578704   0.000000
    13  N    2.731648   1.576518   0.000000
    14  S    3.291454   2.896824   1.728328   0.000000
 Stoichiometry    C6H2F2N2S2
 Framework group  CS[SG(C6H2F2N2S2)]
 Deg. of freedom   25
 Full point group                 CS      NOp   2
 Largest Abelian subgroup         CS      NOp   2
 Largest concise Abelian subgroup C1      NOp   1
                         Standard orientation:                         
 ---------------------------------------------------------------------
 Center     Atomic     Atomic              Coordinates (Angstroms)
 Number     Number      Type              X           Y           Z
 ---------------------------------------------------------------------
    1          6             0        0.012231   -0.884480    0.000000
    2          6             0        0.000000    0.536709    0.000000
    3          6             0        1.245508    1.175558    0.000000
    4          6             0        2.466126    0.494478    0.000000
    5          6             0        2.427779   -0.889537    0.000000
    6          6             0        1.216801   -1.584402    0.000000
    7          9             0        1.271814    2.523790    0.000000
    8          1             0        3.406986    1.044255    0.000000
    9          9             0        3.576308   -1.584770    0.000000
   10          1             0        1.198209   -2.674774    0.000000
   11          7             0       -1.154614   -1.688120    0.000000
   12         16             0       -2.605206   -1.065154    0.000000
   13          7             0       -2.789046    0.500608    0.000000
   14         16             0       -1.447502    1.590277    0.000000
 ---------------------------------------------------------------------
 Rotational constants (GHZ):      1.2445762      0.5729887      0.3923536
 Isotopes: C-12,C-12,C-12,C-12,C-12,C-12,F-19,H-1,F-19,H-1,N-14,S-32,N-14,S-32
 Standard basis: CC-pVDZ (5D, 7F)
 There are   134 symmetry adapted basis functions of A'  symmetry.
 There are    52 symmetry adapted basis functions of A"  symmetry.
 Crude estimate of integral set expansion from redundant integrals=1.000.
 Integral buffers will be    262144 words long.
 Raffenetti 2 integral format.
 Two-electron integral symmetry is turned on.
   186 basis functions      534 primitive gaussians
    51 alpha electrons       51 beta electrons
       nuclear repulsion energy       870.2414990472 Hartrees.
 One-electron integrals computed using PRISM.
 NBasis=   186 RedAO= T  NBF=   134    52
 NBsUse=   186 1.00D-04 NBFU=   134    52
 Initial guess read from the read-write file:
 Initial guess orbital symmetries:
       Occupied  (A') (A') (A') (A') (A') (A') (A') (A') (A') (A')
                 (A') (A') (A') (A') (A') (A") (A') (A') (A') (A")
                 (A') (A') (A') (A') (A') (A') (A') (A') (A') (A')
                 (A') (A') (A') (A') (A') (A") (A') (A") (A") (A')
                 (A') (A') (A') (A") (A') (A") (A') (A") (A') (A")
                 (A")
       Virtual   (A") (A') (A") (A") (A') (A') (A') (A') (A') (A')
                 (A") (A') (A') (A') (A') (A') (A') (A') (A') (A')
                 (A") (A') (A") (A') (A') (A') (A') (A") (A') (A')
                 (A") (A') (A') (A") (A") (A") (A') (A") (A") (A")
                 (A') (A") (A') (A') (A') (A') (A') (A') (A") (A')
                 (A') (A') (A") (A') (A") (A') (A") (A') (A') (A")
                 (A') (A') (A") (A') (A') (A') (A") (A') (A") (A')
                 (A") (A') (A') (A') (A') (A') (A") (A") (A') (A')
                 (A') (A") (A') (A") (A') (A') (A') (A') (A") (A')
                 (A') (A") (A') (A") (A') (A') (A') (A") (A") (A')
                 (A') (A") (A") (A') (A") (A') (A') (A') (A') (A")
                 (A') (A') (A") (A') (A') (A') (A') (A') (A') (A')
                 (A') (A') (A') (A') (A') (A") (A") (A') (A') (A")
                 (A") (A') (A') (A') (A')
 Requested convergence on RMS density matrix=1.00D-08 within  64 cycles.
 Requested convergence on MAX density matrix=1.00D-06.
 Integral accuracy reduced to 1.0D-05 until final iterations.
 Initial convergence to 1.0D-05 achieved.  Increase integral accuracy.
 SCF Done:  E(RB+HF-LYP) =  -1335.37345593     A.U. after   15 cycles
             Convg  =    0.7281D-08             -V/T =  2.0036
             S**2   =   0.0000
 ***** Axes restored to original set *****
 -------------------------------------------------------------------
 Center     Atomic                   Forces (Hartrees/Bohr)
 Number     Number              X              Y              Z
 -------------------------------------------------------------------
    1          6          -0.010122438    0.000000000    0.003472238
    2          6           0.024748335    0.000000000   -0.007733159
    3          6          -0.012367172    0.000000000   -0.004320893
    4          6           0.004290967    0.000000000   -0.001841876
    5          6          -0.001677300    0.000000000    0.003783958
    6          6           0.002213503    0.000000000   -0.002374991
    7          9          -0.000906696    0.000000000    0.001514655
    8          1          -0.000229523    0.000000000    0.000025962
    9          9           0.000993351    0.000000000   -0.000330199
   10          1          -0.000120548    0.000000000    0.000603893
   11          7           0.003966138    0.000000000   -0.000628788
   12         16          -0.003600159    0.000000000   -0.003904620
   13          7           0.003422239    0.000000000    0.004960851
   14         16          -0.010610698    0.000000000    0.006772970
 -------------------------------------------------------------------
 Cartesian Forces:  Max     0.024748335 RMS     0.005459058

 GradGradGradGradGradGradGradGradGradGradGradGradGradGradGradGradGradGrad
 Berny optimization.
 Internal  Forces:  Max     0.011211648 RMS     0.002425936
 Search for a local minimum.
 Step number   4 out of a maximum of  78
 All quantities printed in internal units (Hartrees-Bohrs-Radians)
 Update second derivatives using information from points  2  3  4
 Trust test= 1.18D+00 RLast= 1.79D-01 DXMaxT set to 5.36D-01
     Eigenvalues ---    0.01951   0.02029   0.02089   0.02089   0.02089
     Eigenvalues ---    0.02089   0.02089   0.02089   0.02148   0.02258
     Eigenvalues ---    0.02694   0.15999   0.16024   0.20829   0.22605
     Eigenvalues ---    0.23598   0.24358   0.25000   0.25000   0.25733
     Eigenvalues ---    0.27402   0.34746   0.34824   0.35280   0.35630
     Eigenvalues ---    0.39804   0.41568   0.44603   0.44919   0.45557
     Eigenvalues ---    0.45717   0.47714   0.55413   0.57174   0.57203
     Eigenvalues ---    0.579211000.000001000.000001000.000001000.00000
     Eigenvalues --- 1000.000001000.000001000.000001000.000001000.00000
     Eigenvalues --- 1000.000001000.000001000.000001000.000001000.00000
     Eigenvalues --- 1000.000001000.000001000.000001000.000001000.00000
     Eigenvalues --- 1000.000001000.000001000.000001000.000001000.00000
     Eigenvalues --- 1000.000001000.000001000.000001000.000001000.00000
     Eigenvalues --- 1000.000001000.000001000.00000
 RFO step:  Lambda=-9.52148723D-04.
 Quartic linear search produced a step of  0.21292.
 Iteration  1 RMS(Cart)=  0.00900557 RMS(Int)=  0.00008348
 Iteration  2 RMS(Cart)=  0.00009848 RMS(Int)=  0.00004259
 Iteration  3 RMS(Cart)=  0.00000000 RMS(Int)=  0.00004259
 Variable       Old X    -DE/DX   Delta X   Delta X   Delta X     New X
                                 (Linear)    (Quad)   (Total)
    R1        2.68576  -0.00280  -0.00350  -0.00515  -0.00854   2.67722
    R2        2.63268   0.00290  -0.00028   0.00866   0.00842   2.64110
    R3        2.67739  -0.00118  -0.00361   0.00004  -0.00356   2.67384
    R4        2.64522  -0.01121  -0.02125  -0.01446  -0.03566   2.60956
    R5        3.38323   0.01102   0.00305   0.03342   0.03648   3.41970
    R6        2.64141   0.00176   0.00073   0.00384   0.00453   2.64594
    R7        2.54827   0.00144   0.00044   0.00318   0.00362   2.55189
    R8        2.61641  -0.00180   0.00449  -0.00878  -0.00438   2.61204
    R9        2.05926  -0.00019  -0.00091   0.00008  -0.00083   2.05843
[...]
   D30        0.00000   0.00000   0.00000   0.00000   0.00000   0.00000
   D31        0.00000   0.00000   0.00000  -0.00001   0.00000   0.00000
         Item               Value     Threshold  Converged?
 Maximum Force            0.000156     0.000450     YES
 RMS     Force            0.000046     0.000300     YES
 Maximum Displacement     0.001129     0.001800     YES
 RMS     Displacement     0.000212     0.001200     YES
 Predicted change in Energy=-3.175883D-07
 Optimization completed.
    -- Stationary point found.
                         ----------------------------
                         !   Optimized Parameters   !
                         ! (Angstroms and Degrees)  !
 ------------------------                            -------------------------
 ! Name  Definition              Value          Derivative Info.             !
 -----------------------------------------------------------------------------
 ! R1    R(1,2)                  1.4169         -DE/DX =    0.               !
 ! R2    R(1,6)                  1.3985         -DE/DX =    0.               !
 ! R3    R(1,11)                 1.4095         -DE/DX =    0.0001           !
 ! R4    R(2,3)                  1.3824         -DE/DX =    0.               !
 ! R5    R(2,14)                 1.8286         -DE/DX =    0.               !
 ! R6    R(3,4)                  1.4022         -DE/DX =    0.               !
 ! R7    R(3,7)                  1.3512         -DE/DX =   -0.0002           !
 ! R8    R(4,5)                  1.3825         -DE/DX =    0.0001           !
 ! R9    R(4,8)                  1.089          -DE/DX =    0.               !
 ! R10   R(5,6)                  1.3988         -DE/DX =    0.               !
 ! R11   R(5,9)                  1.3451         -DE/DX =   -0.0001           !
 ! R12   R(6,10)                 1.0898         -DE/DX =    0.               !
 ! R13   R(11,12)                1.5852         -DE/DX =   -0.0001           !
 ! R14   R(12,13)                1.583          -DE/DX =   -0.0001           !
 ! R15   R(13,14)                1.7133         -DE/DX =   -0.0002           !
 ! A1    A(2,1,6)              118.9759         -DE/DX =    0.               !
 ! A2    A(2,1,11)             125.2645         -DE/DX =    0.               !
 ! A3    A(6,1,11)             115.7596         -DE/DX =    0.               !
 ! A4    A(1,2,3)              118.6196         -DE/DX =    0.               !
 ! A5    A(1,2,14)             125.2735         -DE/DX =    0.               !
 ! A6    A(3,2,14)             116.107          -DE/DX =    0.               !
 ! A7    A(2,3,4)              123.5366         -DE/DX =    0.               !
 ! A8    A(2,3,7)              118.1313         -DE/DX =    0.               !
 ! A9    A(4,3,7)              118.3322         -DE/DX =    0.               !
 ! A10   A(3,4,5)              116.586          -DE/DX =    0.               !
 ! A11   A(3,4,8)              121.0766         -DE/DX =    0.               !
 ! A12   A(5,4,8)              122.3374         -DE/DX =    0.               !
 ! A13   A(4,5,6)              122.2095         -DE/DX =    0.               !
 ! A14   A(4,5,9)              119.2583         -DE/DX =    0.               !
 ! A15   A(6,5,9)              118.5322         -DE/DX =    0.               !
 ! A16   A(1,6,5)              120.0725         -DE/DX =    0.               !
 ! A17   A(1,6,10)             119.2765         -DE/DX =    0.               !
 ! A18   A(5,6,10)             120.651          -DE/DX =    0.               !
 ! A19   A(1,11,12)            122.1255         -DE/DX =    0.               !
 ! A20   A(11,12,13)           119.4196         -DE/DX =   -0.0001           !
 ! A21   A(12,13,14)           123.3686         -DE/DX =    0.0001           !
 ! A22   A(2,14,13)            104.5483         -DE/DX =    0.               !
 ! D1    D(6,1,2,3)              0.             -DE/DX =    0.               !
 ! D2    D(6,1,2,14)           180.             -DE/DX =    0.               !
 ! D3    D(11,1,2,3)           180.             -DE/DX =    0.               !
 ! D4    D(11,1,2,14)            0.             -DE/DX =    0.               !
 ! D5    D(2,1,6,5)              0.             -DE/DX =    0.               !
 ! D6    D(2,1,6,10)           180.             -DE/DX =    0.               !
 ! D7    D(11,1,6,5)           180.             -DE/DX =    0.               !
 ! D8    D(11,1,6,10)            0.             -DE/DX =    0.               !
 ! D9    D(2,1,11,12)            0.             -DE/DX =    0.               !
 ! D10   D(6,1,11,12)          180.             -DE/DX =    0.               !
 ! D11   D(1,2,3,4)              0.             -DE/DX =    0.               !
 ! D12   D(1,2,3,7)            180.             -DE/DX =    0.               !
 ! D13   D(14,2,3,4)           180.             -DE/DX =    0.               !
 ! D14   D(14,2,3,7)             0.             -DE/DX =    0.               !
 ! D15   D(1,2,14,13)            0.             -DE/DX =    0.               !
 ! D16   D(3,2,14,13)          180.             -DE/DX =    0.               !
 ! D17   D(2,3,4,5)              0.             -DE/DX =    0.               !
 ! D18   D(2,3,4,8)            180.             -DE/DX =    0.               !
 ! D19   D(7,3,4,5)            180.             -DE/DX =    0.               !
 ! D20   D(7,3,4,8)              0.             -DE/DX =    0.               !
 ! D21   D(3,4,5,6)              0.             -DE/DX =    0.               !
 ! D22   D(3,4,5,9)            180.             -DE/DX =    0.               !
 ! D23   D(8,4,5,6)            180.             -DE/DX =    0.               !
 ! D24   D(8,4,5,9)              0.             -DE/DX =    0.               !
 ! D25   D(4,5,6,1)              0.             -DE/DX =    0.               !
 ! D26   D(4,5,6,10)           180.             -DE/DX =    0.               !
 ! D27   D(9,5,6,1)            180.             -DE/DX =    0.               !
 ! D28   D(9,5,6,10)             0.             -DE/DX =    0.               !
 ! D29   D(1,11,12,13)           0.             -DE/DX =    0.               !
 ! D30   D(11,12,13,14)          0.             -DE/DX =    0.               !
 ! D31   D(12,13,14,2)           0.             -DE/DX =    0.               !
 -----------------------------------------------------------------------------
 GradGradGradGradGradGradGradGradGradGradGradGradGradGradGradGradGradGrad

 1\1\ TCD-N3\Freq\RB3LYP\CC-pVDZ\C6H2F2N2S2\ANDY\03-Oct-2003\0\\#N GEOM
 =ALLCHECK GUESS=TCHECK RB3LYP/CC-PVDZ FREQ\\Difluorodithiadiazine Freq
 uency Calculation\\0,1\C,-0.0473719282,0.,-0.8930489708\C,0.0560891827
 ,0.,0.5200291736\C,1.3147371352,0.,1.0918253877\C,2.5034301762,0.,0.34
 81415161\C,2.372232347,0.,-1.0281456237\C,1.1232972363,0.,-1.658046325
 3\F,1.4019166686,0.,2.4402304023\H,3.4746435583,0.,0.8406959041\F,3.47
 80252453,0.,-1.7939398866\H,1.0494246816,0.,-2.7453050403\N,-1.2545540
 093,0.,-1.6206052697\S,-2.6694888377,0.,-0.9059471201\N,-2.7419069445,
 0.,0.6753904479\S,-1.3556863926,0.,1.6821950765\\Version=x86-Linux-G98
 RevA.7\State=1-A'\HF=-1335.3744687\RMSD=2.713e-09\RMSF=7.997e-05\Dipol
 e=0.1032485,0.,-0.1930505\DipoleDeriv=0.6050399,-0.0000625,-0.0303621,
 0.0002235,0.1060905,-0.0003048,0.3396043,-0.0001833,0.1186934,-0.10721
 14,-0.0000336,-0.1313077,-0.0002253,-0.0727743,0.0000158,-0.2782812,0.
 00004,-0.359669,0.2617046,-0.0000082,0.0576768,-0.0000722,0.1265815,-0
 .0000163,0.4311787,0.0000099,1.1691468,-0.2028373,0.0000224,0.1487767,
 -0.0000993,-0.1556269,0.0002494,-0.0356482,-0.0000234,-0.3382841,1.388
 919,-0.0001625,-0.5095686,0.0001829,0.1296165,-0.0002603,-0.4415741,-0
 .0000832,0.7680114,-0.5552856,0.0000933,0.0977813,-0.0000027,-0.123022
 5,0.0001157,-0.0455262,0.0000271,0.0277145,-0.1963083,0.0000056,-0.090
 6654,0.0001497,-0.1186159,-0.0001126,-0.347056,0.0000119,-1.0153794,0.
 0449553,0.0000062,-0.0245581,0.0000102,0.1658896,-0.0000494,-0.014851,
 -0.0000022,0.0795914,-1.0500395,-0.0000088,0.5269338,-0.0000953,-0.125
 042,0.0001249,0.5724547,0.0000567,-0.5236638,0.0789184,-0.0000052,-0.0
 271367,-0.000058,0.1403095,0.0000462,-0.0012881,0.0000681,0.0333376,-0
 .8389191,-0.0000167,0.4377938,-0.0002146,-0.283329,0.0000687,-0.318919
 8,0.0001833,-0.5742775,0.8993275,0.0001925,-0.5238708,0.0000156,0.3491
 862,0.0000161,-0.4449697,-0.0001989,0.7040615,-0.508438,-0.0001048,0.4
 996326,0.0000186,-0.2765958,0.0000127,0.4698596,0.0000759,-0.1548806,0
 .1801758,0.0000822,-0.4311265,0.0001667,0.1373323,0.0000939,0.1150174,
 0.000018,0.0655987\Polar=163.9516207,0.0010531,41.6730743,-8.2164429,0
 .0028543,122.9349483\PG=CS [SG(C6H2F2N2S2)]\NImag=0\\0.63149542,-0.000
 00736,0.15219915,-0.04465130,-0.00000477,0.62138198,-0.09475501,0.0000
 0444,0.02327038,0.58590532,0.00000070,-0.05836126,0.00000548,0.0000031
 4,0.09821766,-0.02065205,-0.00000529,-0.27335541,0.09011930,0.00000058
 ,0.58948448,0.00759136,0.00000213,-0.09822078,-0.32293767,-0.00000592,
 -0.04155300,0.71202532,-0.00000125,-0.00119326,0.00000225,0.00000036,-
 0.06323183,-0.00000144,-0.00000301,0.14795546,-0.02940116,0.00000249,-
 0.01972434,-0.11696865,-0.00000587,-0.14306918,0.00419782,0.00000033,0
 .65896728,0.00095262,0.00000026,0.03392216,-0.05192746,-0.00000003,-0.
 02097198,-0.27677856,0.00000055,0.12084905,0.73742007,0.00000135,0.001
 49720,0.00000399,-0.00000075,0.00905271,0.00000051,0.00000005,-0.05840
 769,0.00000039,-0.00000076,0.10906502,0.01799058,0.00000084,-0.0571434
 4,0.02586731,-0.00000519,0.06375419,0.04494881,-0.00000123,-0.15882815
 ,0.04860687,0.00000088,0.72577262,-0.05422031,-0.00000245,0.04079776,-
 0.01820281,-0.00000489,-0.04172791,0.04876202,0.00000208,0.02484769,-0
 .12995534,0.00000281,-0.00394152,0.67586891,-0.00000160,-0.00162651,-0
 .00000538,0.00000036,0.00188904,-0.00000126,0.00000246,-0.00434098,0.0
 0000141,0.00000057,-0.06192869,0.00000087,-0.00000228,0.15265386,-0.01
 403879,-0.00000324,0.07390256,-0.03052710,0.00000690,-0.05618725,0.086
 01998,-0.00000019,-0.03542993,-0.07830354,0.00000107,-0.35959346,0.000
 69484,-0.00000262,0.72247058,-0.25343220,0.00000052,0.07672325,0.02591
 807,0.00000387,0.06840993,-0.06172512,-0.00000106,0.00316811,0.0226133
 3,-0.00000074,-0.06952189,-0.26613858,0.00000015,-0.05380961,0.6885302
 1,0.00000547,-0.06274933,0.00000118,-0.00000236,0.00758741,0.00000295,
 0.00000136,0.00003126,-0.00000123,0.00000034,0.00818352,0.00000017,-0.
 00000284,-0.06352508,0.00000192,0.00000105,0.11815575,0.13494379,0.000
 00253,-0.19751017,0.02397415,0.00000539,-0.02946335,-0.00005526,0.0000
 0213,-0.00139582,-0.02869457,-0.00000202,-0.01860394,-0.12657839,0.000
 00024,-0.17638324,0.00621741,-0.00000384,0.75086968,-0.00593275,0.0000
 0013,0.00561736,-0.00063303,0.00000006,-0.04669024,-0.07441994,0.00000
 028,-0.01887571,0.00891791,0.00000016,0.04096819,-0.00790306,-0.000000
 30,-0.00454178,0.00367903,-0.00000063,-0.00006839,0.07243066,0.0000006
 6,0.00794813,-0.00000514,-0.00000029,0.00796675,0.00000139,0.00000373,
 -0.04397614,-0.00000017,-0.00000028,0.00703418,0.00000136,-0.00000290,
 0.00595740,-0.00000095,0.00000098,-0.00131746,-0.00000180,-0.00000039,
 0.02492629,-0.00342417,-0.00000068,0.00538970,-0.00952134,0.00000033,-
 0.04352417,-0.01704595,-0.00000060,-0.31449199,0.00090251,-0.00000072,
 -0.04485805,0.00373862,0.00000061,0.00385686,-0.00112683,0.00000097,-0
 .00353240,0.02651424,0.00000107,0.40127357,-0.00007450,-0.00000010,0.0
 0068131,-0.00206825,0.00000268,0.00335105,-0.01633868,0.00000059,-0.01
 507034,-0.29016988,-0.00000016,-0.11935483,0.00135398,-0.00000078,0.00
 187705,0.00147851,-0.00000040,0.00043897,0.00237240,-0.00000074,-0.000
 57554,0.30298226,0.00000011,-0.00171713,-0.00000108,0.00000020,0.00389
 202,0.00000068,0.,0.00325138,-0.00000114,0.00000007,-0.02865343,-0.000
 00074,-0.00000250,0.00502588,0.00000050,0.00000160,0.00550320,0.000001
 04,-0.00000014,-0.00373978,0.00000051,0.00000031,0.02094062,0.00074555
 ,0.00000021,-0.00123639,0.00285842,0.00000135,-0.00150305,0.01550432,0
 .00000027,0.01105511,-0.11933222,-0.00000021,-0.11582750,-0.02857697,-
 0.00000024,-0.00525742,0.00111340,-0.00000050,-0.00566452,-0.00160698,
 -0.00000028,0.00153553,0.12927984,0.00000019,0.11359514,0.00012501,-0.
 00000248,-0.00946658,0.00099946,0.00000111,0.00377287,-0.00204283,-0.0
 0000162,-0.00240492,-0.00306227,-0.00000004,0.01302160,-0.24781147,0.0
 0000003,0.12187895,-0.05157561,0.00000214,0.03361741,0.00012080,0.0000
 0159,0.00134331,0.00070039,0.00000068,0.00044876,0.30293562,-0.0000011
 2,0.00662763,0.00000320,0.00000013,-0.00169966,-0.00000070,-0.00000221
 ,0.00823288,0.00000058,0.00000003,0.00830519,-0.00000039,0.00000314,-0
 .04421638,0.00000039,-0.00000108,0.00760906,0.00000063,0.00000038,-0.0
 0001019,-0.00000087,0.00000038,-0.00506710,0.00000020,-0.00000079,0.02
 494469,-0.00017740,0.00000215,-0.00466682,0.00220956,-0.00000156,0.002
 99055,-0.00962822,0.00000088,-0.00219846,0.05181250,-0.00000043,-0.033
 38621,0.12077399,0.00000053,-0.15909277,-0.00517139,-0.00000167,0.0131
 5246,0.00266070,-0.00000069,-0.00309269,-0.00040530,-0.00000029,0.0030
 4263,-0.16349788,0.00000028,0.18211576,0.00504676,-0.00000015,0.025589
 54,-0.00372681,-0.00000066,0.00197908,-0.00167035,-0.00000018,0.000475
 27,-0.00499964,-0.00000009,-0.00155974,0.00395273,0.00000025,-0.027285
 95,-0.05602178,0.00000025,-0.02140992,0.00028220,0.00000030,0.00002873
 ,0.00012719,0.00000004,-0.00129600,0.00256981,-0.00000017,0.00118304,0
 .05193763,-0.00000200,0.00406177,0.00000190,0.00000035,0.00568288,-0.0
 0000175,-0.00000170,-0.00113209,0.00000162,0.00000010,0.00424695,0.000
 00014,0.00000375,0.00397191,-0.00000095,-0.00000193,-0.03224224,0.0000
 0069,0.00000044,-0.00010467,-0.00000107,0.00000005,0.00045138,0.000000
 05,-0.00000162,-0.00397236,0.00000104,-0.00000019,0.02339039,-0.003268
 88,0.00000059,-0.01219035,0.00249646,-0.00000573,-0.00059235,0.0002255
 0,-0.00000223,0.00069322,-0.00212994,-0.00000061,0.00070251,0.00374690
 ,0.00000263,-0.00917800,-0.02075864,0.00000229,-0.34651679,-0.00000843
 ,0.00000317,0.00004596,0.00019050,-0.00000034,-0.00028991,0.00015101,-
 0.00000218,0.00126606,0.02171849,-0.00000118,0.36509564,-0.16423042,-0
 .00000324,-0.08045569,-0.03467907,0.00000447,-0.02966335,0.02877125,0.
 00000046,0.00029472,-0.01762775,0.00000218,0.00572462,-0.00107053,-0.0
 0000363,-0.00153069,-0.05969417,0.00000141,-0.01196340,-0.00235077,-0.
 00000220,-0.00162682,0.00050998,-0.00000002,0.00001283,-0.00079910,0.0
 0000175,-0.00125352,0.00289213,0.00000040,-0.00197706,0.52129451,0.000
 00104,-0.04845772,0.00000549,-0.00000387,0.00351523,0.00000190,-0.0000
 0753,0.00747582,-0.00000136,0.00000074,-0.00086267,-0.00000174,0.00001
 056,0.00665298,-0.00000223,-0.00000366,0.00874798,0.00000520,0.0000006
 6,-0.00070688,-0.00000014,0.00000082,-0.00049231,0.00000046,-0.0000023
 9,-0.00067104,0.00000153,0.00000016,-0.00465489,-0.00000621,0.00000075
 ,0.04315541,-0.06579185,0.00000743,-0.12246549,-0.04451826,-0.00000382
 ,-0.02203679,0.01690253,0.00000092,-0.00121000,-0.00501310,-0.00000438
 ,0.00582934,0.00009400,0.00000482,-0.00603771,0.00785690,-0.00000375,0
 .01731629,-0.00242274,0.00000168,-0.00341101,-0.00014484,0.00000026,0.
 00030353,-0.00006392,-0.00000142,0.00150774,-0.00029698,0.00000066,0.0
 0062935,0.00161344,-0.00000151,0.24314189,-0.08424575,0.00001053,0.015
 64165,0.02107453,-0.00000611,0.00832465,-0.01367354,0.00000203,-0.0018
 5375,0.00807543,-0.00000509,-0.00230547,-0.00138160,0.00000601,0.00426
 868,0.00200812,-0.00000635,-0.00780493,0.00108715,0.00000102,0.0041586
 6,-0.00017008,-0.00000018,-0.00002749,-0.00085049,-0.00000106,0.000164
 05,-0.00107091,0.00000198,0.00033603,-0.27884341,0.00000025,0.04283227
 ,0.43471724,-0.00000351,0.00534489,-0.00000622,0.00000208,0.00141304,0
 .00000137,0.00000026,-0.00110524,-0.00000018,0.00000101,-0.00013121,-0
 .00000192,-0.00000960,0.00036878,0.00000381,0.00000467,0.00085080,-0.0
 0000228,-0.00000002,-0.00041474,0.00000057,0.00000087,0.00011086,0.000
 00060,0.00000490,0.00023086,-0.00000292,-0.00000040,0.00005474,0.00000
 235,0.00000267,-0.02593297,0.00000277,-0.00000080,0.03723726,-0.001174
 86,-0.00001357,0.00519677,0.00558079,0.00001425,-0.00034898,-0.0046205
 6,-0.00000064,-0.00261295,0.00244964,0.00000819,-0.00375168,0.00429028
 ,-0.00001139,0.00427278,-0.00578701,0.00000739,-0.00192308,0.00017531,
 -0.00000498,-0.00159433,0.00043466,0.00000023,-0.00040402,-0.00065845,
 0.00000333,-0.00039050,0.00017237,-0.00000121,0.00016026,0.12488116,-0
 .00000075,-0.10087631,-0.06561357,0.00000238,0.47795140,0.01705885,-0.
 00000244,0.00376482,-0.03791660,0.00001185,-0.01359751,0.00605448,-0.0
 0000096,0.00905100,-0.00743973,0.00000352,0.00022661,-0.00115156,-0.00
 000508,-0.00488926,0.00099586,0.00000272,-0.00113804,0.00012954,-0.000
 00233,-0.00240879,-0.00026692,0.00000056,0.00048315,0.00069567,0.00000
 099,-0.00034054,0.00104095,-0.00000098,-0.00031556,-0.00502267,-0.0000
 0884,0.04016891,-0.05547998,0.00000547,-0.03633329,0.17284923,0.000003
 41,0.00107254,0.00000887,0.00000082,-0.00055372,-0.00000487,-0.0000003
 0,-0.00253105,0.00000242,0.00000050,0.00025560,0.00000117,0.00000492,-
 0.00122888,0.00000128,-0.00000477,-0.00115393,-0.00000257,-0.00000034,
 0.00083515,-0.00000141,-0.00000104,0.00071179,-0.00000076,-0.00000237,
 0.00023303,0.00000024,-0.00000011,-0.00000493,0.00000082,0.00000016,0.
 01748929,-0.00000408,-0.00000296,-0.03034036,0.00000432,0.00000524,0.0
 2584337,-0.01610176,0.00000707,-0.00059625,-0.01074455,-0.00000407,0.0
 1775901,0.01653637,0.00000024,-0.00387962,-0.00914674,-0.00000370,0.00
 903644,-0.00996304,0.00000486,-0.01089102,0.01269603,-0.00000522,0.001
 69610,-0.00252777,0.00000166,0.00295317,0.00007039,-0.00000004,0.00030
 386,0.00292165,-0.00000097,-0.00073430,-0.00035622,0.00000122,0.000584
 52,-0.00258677,0.00000054,-0.02025187,0.05142764,-0.00000129,-0.324306
 53,0.03539583,-0.00000105,0.41430449,-0.00537911,0.00000021,0.00678612
 ,-0.06705069,-0.00001028,0.03889916,-0.03361774,0.00000172,0.02169089,
 0.00398128,-0.00000244,-0.00067113,-0.00210234,0.00000385,0.00018720,0
 .00336433,-0.00000217,-0.00147882,0.00221986,0.00000086,-0.00095665,-0
 .00043639,-0.00000074,0.00039339,-0.00200500,-0.00000038,0.00167042,-0
 .00035990,0.00000135,-0.00040638,0.01085002,0.00001130,0.00878362,-0.0
 3124669,-0.00000762,-0.02379643,-0.09154713,-0.00000316,-0.06762110,0.
 21332951,0.00000412,-0.00464610,-0.00000978,-0.00000463,-0.01537027,0.
 00000594,0.00001069,0.00897146,0.00000068,-0.00000316,0.00234331,0.000
 00574,0.00000019,0.00034666,-0.00000568,0.00000042,0.00431904,-0.00000
 533,-0.00000031,-0.00439803,0.00000142,-0.00000245,-0.00021737,-0.0000
 0134,0.00000085,-0.00054661,0.00000091,0.00000095,0.00025117,0.0000066
 3,-0.00000518,-0.00525824,0.00000042,0.00000072,0.01231328,-0.00000750
 ,-0.00000971,-0.01062789,0.00000073,0.00000748,0.01251958,0.04500231,0
 .00000422,-0.01698234,0.03590351,-0.00000804,-0.10390771,-0.01321156,-
 0.00000070,0.01212485,0.00504938,-0.00000296,-0.01310267,0.01180376,0.
 00000490,0.01354802,-0.02000967,-0.00000066,-0.00204121,0.00080623,0.0
 0000370,-0.00055015,-0.00077292,0.00000023,0.00034699,-0.00106382,-0.0
 0000209,-0.00051344,0.00105829,-0.00000117,-0.00041012,-0.00146949,-0.
 00000118,0.00756104,-0.04954842,0.00000095,-0.05137284,-0.03006733,-0.
 00000437,-0.08597799,0.01651973,0.00000717,0.24127757\\-0.00019291,0.,
 -0.00005447,0.00002008,0.,0.00000034,-0.00007450,0.,-0.00019921,0.0001
 0274,0.,-0.00004968,-0.00009004,0.,0.00010469,0.00006637,0.,0.00000123
 ,0.00003130,0.,0.00015372,-0.00001037,0.,0.00000960,0.00004277,0.,-0.0
 0005495,-0.00000037,0.,0.00000264,0.00017154,0.,-0.00003057,0.00002930
 ,0.,-0.00002426,-0.00023535,0.,0.00006748,0.00013944,0.,0.00007346\\\@


 THERE IS NO SCIENCE WITHOUT FANCY, NOR ART WITHOUT FACTS.
     -- VLADIMIR NABAKOV
 Job cpu time:  0 days  1 hours 52 minutes 21.2 seconds.
 File lengths (MBytes):  RWF=   80 Int=    0 D2E=    0 Chk=    7 Scr=    1
 Normal termination of Gaussian 98.

