Trimethylphosphogallane optimization                                    
Freq      RB3LYP                                                      6-311++G(d,p)
Number of atoms                            I               17
Charge                                     I                0
Multiplicity                               I                1
Number of electrons                        I               68
Number of alpha electrons                  I               34
Number of beta electrons                   I               34
Number of basis functions                  I              220
Number of independant functions            I              220
Number of contracted shells                I              103
Highest angular momentum                   I                2
Largest degree of contraction              I                6
Number of primitive shells                 I              171
Viriral Ratio                              R      2.001773499515839E+00
SCF Energy                                 R     -2.101202875956032E+03
Total Energy                               R     -2.101202875956032E+03
RMS Force                                  R      1.131232876589181E-05
RMS Density                                R      2.086901778206328E-09
Atomic numbers                             I   N=          17
          31           7           1           1           1           6
           6           6           1           1           1           1
           1           1           1           1           1
Nuclear charges                            R   N=          17
  3.10000000E+01  7.00000000E+00  1.00000000E+00  1.00000000E+00  1.00000000E+00
  6.00000000E+00  6.00000000E+00  6.00000000E+00  1.00000000E+00  1.00000000E+00
  1.00000000E+00  1.00000000E+00  1.00000000E+00  1.00000000E+00  1.00000000E+00
  1.00000000E+00  1.00000000E+00
Current cartesian coordinates              R   N=          51
 -1.18444692E-32  2.94686412E-33  2.44002551E+00  9.65372385E-33 -2.06415727E-33
 -1.70913764E+00 -9.00372249E-33 -2.95338466E+00  2.88370273E+00  2.55770614E+00
  1.47669233E+00  2.88370273E+00 -2.55770614E+00  1.47669233E+00  2.88370273E+00
 -1.78148520E-33  2.64637790E+00 -2.60763940E+00  2.29183049E+00 -1.32318895E+00
 -2.60763940E+00 -2.29183049E+00 -1.32318895E+00 -2.60763940E+00  1.67403316E+00
  3.61046003E+00 -1.89144358E+00  4.81482486E-34  2.72319022E+00 -4.68058829E+00
 -1.67403316E+00  3.61046003E+00 -1.89144358E+00  2.28973352E+00 -3.25498526E+00
 -1.89144358E+00  2.35835191E+00 -1.36159511E+00 -4.68058829E+00  3.96376669E+00
 -3.55474769E-01 -1.89144358E+00 -3.96376669E+00 -3.55474769E-01 -1.89144358E+00
 -2.35835191E+00 -1.36159511E+00 -4.68058829E+00 -2.28973352E+00 -3.25498526E+00
 -1.89144358E+00
Atom types                                 I   N=          17
           0           0           0           0           0           0
           0           0           0           0           0           0
           0           0           0           0           0
Force Field                                I                0
MM charges                                 R   N=          17
  0.00000000E+00  0.00000000E+00  0.00000000E+00  0.00000000E+00  0.00000000E+00
  0.00000000E+00  0.00000000E+00  0.00000000E+00  0.00000000E+00  0.00000000E+00
  0.00000000E+00  0.00000000E+00  0.00000000E+00  0.00000000E+00  0.00000000E+00
  0.00000000E+00  0.00000000E+00
ONIOM Charges                              I   N=           4
           0           0           0           0
ONIOM Multiplicities                       I   N=           4
           1           0           0           0
Atom Layers                                I   N=          17
           0           0           0           0           0           0
           0           0           0           0           0           0
           0           0           0           0           0
Atom Modifiers                             I   N=          17
           0           0           0           0           0           0
           0           0           0           0           0           0
           0           0           0           0           0
Atom types                                 I   N=          17
           0           0           0           0           0           0
           0           0           0           0           0           0
           0           0           0           0           0
Link Atoms                                 I   N=          17
           0           0           0           0           0           0
           0           0           0           0           0           0
           0           0           0           0           0
Atom Modified MM Charges                   R   N=          17
  0.00000000E+00  0.00000000E+00  0.00000000E+00  0.00000000E+00  0.00000000E+00
  0.00000000E+00  0.00000000E+00  0.00000000E+00  0.00000000E+00  0.00000000E+00
  0.00000000E+00  0.00000000E+00  0.00000000E+00  0.00000000E+00  0.00000000E+00
  0.00000000E+00  0.00000000E+00
Link Distances                             R   N=          17
  0.00000000E+00  0.00000000E+00  0.00000000E+00  0.00000000E+00  0.00000000E+00
  0.00000000E+00  0.00000000E+00  0.00000000E+00  0.00000000E+00  0.00000000E+00
  0.00000000E+00  0.00000000E+00  0.00000000E+00  0.00000000E+00  0.00000000E+00
  0.00000000E+00  0.00000000E+00
MxBond                                     I                4
NBond                                      I   N=          17
           4           4           1           1           1           4
           4           4           1           1           1           1
           1           1           1           1           1
IBond                                      I   N=          68
           2           3           4           5           1           6
           7           8           1           0           0           0
           1           0           0           0           1           0
           0           0           2           9          10          11
           2          12          13          14           2          15
          16          17           6           0           0           0
           6           0           0           0           6           0
           0           0           7           0           0           0
           7           0           0           0           7           0
           0           0           8           0           0           0
           8           0           0           0           8           0
           0           0
RBond                                      R   N=          68
  1.00000000E+00  1.00000000E+00  1.00000000E+00  1.00000000E+00  1.00000000E+00
  1.00000000E+00  1.00000000E+00  1.00000000E+00  1.00000000E+00  0.00000000E+00
  0.00000000E+00  0.00000000E+00  1.00000000E+00  0.00000000E+00  0.00000000E+00
  0.00000000E+00  1.00000000E+00  0.00000000E+00  0.00000000E+00  0.00000000E+00
  1.00000000E+00  1.00000000E+00  1.00000000E+00  1.00000000E+00  1.00000000E+00
  1.00000000E+00  1.00000000E+00  1.00000000E+00  1.00000000E+00  1.00000000E+00
  1.00000000E+00  1.00000000E+00  1.00000000E+00  0.00000000E+00  0.00000000E+00
  0.00000000E+00  1.00000000E+00  0.00000000E+00  0.00000000E+00  0.00000000E+00
  1.00000000E+00  0.00000000E+00  0.00000000E+00  0.00000000E+00  1.00000000E+00
  0.00000000E+00  0.00000000E+00  0.00000000E+00  1.00000000E+00  0.00000000E+00
  0.00000000E+00  0.00000000E+00  1.00000000E+00  0.00000000E+00  0.00000000E+00
  0.00000000E+00  1.00000000E+00  0.00000000E+00  0.00000000E+00  0.00000000E+00
  1.00000000E+00  0.00000000E+00  0.00000000E+00  0.00000000E+00  1.00000000E+00
  0.00000000E+00  0.00000000E+00  0.00000000E+00
Shell types                                I   N=         103
           0           0           0           0           0           0
           0           0           1           1           1           1
           1           1           1          -2          -2          -1
          -2           0          -1          -1          -1          -1
          -2           0           0           0           0           1
           0           0           0           0           1           0
           0           0           0           1           0          -1
          -1          -1          -1          -2           0          -1
          -1          -1          -1          -2           0          -1
          -1          -1          -1          -2           0           0
           0           0           1           0           0           0
           0           1           0           0           0           0
           1           0           0           0           0           1
           0           0           0           0           1           0
           0           0           0           1           0           0
           0           0           1           0           0           0
           0           1           0           0           0           0
           1
Number of primitives per shell             I   N=         103
           6           3           1           1           1           1
           1           1           3           3           3           1
           1           1           1           4           1           1
           1           6           3           1           1           1
           1           3           1           1           1           1
           3           1           1           1           1           3
           1           1           1           1           6           3
           1           1           1           1           6           3
           1           1           1           1           6           3
           1           1           1           1           3           1
           1           1           1           3           1           1
           1           1           3           1           1           1
           1           3           1           1           1           1
           3           1           1           1           1           3
           1           1           1           1           3           1
           1           1           1           3           1           1
           1           1           3           1           1           1
           1
Shell to atom map                          I   N=         103
           1           1           1           1           1           1
           1           1           1           1           1           1
           1           1           1           1           1           1
           1           2           2           2           2           2
           2           3           3           3           3           3
           4           4           4           4           4           5
           5           5           5           5           6           6
           6           6           6           6           7           7
           7           7           7           7           8           8
           8           8           8           8           9           9
           9           9           9          10          10          10
          10          10          11          11          11          11
          11          12          12          12          12          12
          13          13          13          13          13          14
          14          14          14          14          15          15
          15          15          15          16          16          16
          16          16          17          17          17          17
          17
Primitive exponents                        R   N=         171
  3.33800000E+05  5.01000000E+04  1.15100000E+04  3.29200000E+03  1.08900000E+03
  4.01000000E+02  4.01000000E+02  1.59300000E+02  6.75900000E+01  2.48900000E+01
  1.06800000E+01  3.38600000E+00  1.33100000E+00  1.85300000E-01  6.62100000E-02
  2.18100000E+03  5.15400000E+02  1.64800000E+02  6.14000000E+01  2.49800000E+01
  1.04400000E+01  1.04400000E+01  5.58900000E+00  2.51700000E+00  1.05300000E+00
  2.91500000E-01  1.21000000E-01  3.99000000E-02  6.71400000E+01  1.89400000E+01
  6.42600000E+00  2.19000000E+00  6.72500000E-01  8.00000000E-03  1.69000000E-01
  6.29348000E+03  9.49044000E+02  2.18776000E+02  6.36916000E+01  1.88282000E+01
  2.72023000E+00  3.06331000E+01  7.02614000E+00  2.11205000E+00  6.84009000E-01
  2.00878000E-01  6.39000000E-02  9.13000000E-01  3.38650000E+01  5.09479000E+00
  1.15879000E+00  3.25840000E-01  1.02741000E-01  3.60000000E-02  7.50000000E-01
  3.38650000E+01  5.09479000E+00  1.15879000E+00  3.25840000E-01  1.02741000E-01
  3.60000000E-02  7.50000000E-01  3.38650000E+01  5.09479000E+00  1.15879000E+00
  3.25840000E-01  1.02741000E-01  3.60000000E-02  7.50000000E-01  4.56324000E+03
  6.82024000E+02  1.54973000E+02  4.44553000E+01  1.30290000E+01  1.82773000E+00
  2.09642000E+01  4.80331000E+00  1.45933000E+00  4.83456000E-01  1.45585000E-01
  4.38000000E-02  6.26000000E-01  4.56324000E+03  6.82024000E+02  1.54973000E+02
  4.44553000E+01  1.30290000E+01  1.82773000E+00  2.09642000E+01  4.80331000E+00
  1.45933000E+00  4.83456000E-01  1.45585000E-01  4.38000000E-02  6.26000000E-01
  4.56324000E+03  6.82024000E+02  1.54973000E+02  4.44553000E+01  1.30290000E+01
  1.82773000E+00  2.09642000E+01  4.80331000E+00  1.45933000E+00  4.83456000E-01
  1.45585000E-01  4.38000000E-02  6.26000000E-01  3.38650000E+01  5.09479000E+00
  1.15879000E+00  3.25840000E-01  1.02741000E-01  3.60000000E-02  7.50000000E-01
  3.38650000E+01  5.09479000E+00  1.15879000E+00  3.25840000E-01  1.02741000E-01
  3.60000000E-02  7.50000000E-01  3.38650000E+01  5.09479000E+00  1.15879000E+00
  3.25840000E-01  1.02741000E-01  3.60000000E-02  7.50000000E-01  3.38650000E+01
  5.09479000E+00  1.15879000E+00  3.25840000E-01  1.02741000E-01  3.60000000E-02
  7.50000000E-01  3.38650000E+01  5.09479000E+00  1.15879000E+00  3.25840000E-01
  1.02741000E-01  3.60000000E-02  7.50000000E-01  3.38650000E+01  5.09479000E+00
  1.15879000E+00  3.25840000E-01  1.02741000E-01  3.60000000E-02  7.50000000E-01
  3.38650000E+01  5.09479000E+00  1.15879000E+00  3.25840000E-01  1.02741000E-01
  3.60000000E-02  7.50000000E-01  3.38650000E+01  5.09479000E+00  1.15879000E+00
  3.25840000E-01  1.02741000E-01  3.60000000E-02  7.50000000E-01  3.38650000E+01
  5.09479000E+00  1.15879000E+00  3.25840000E-01  1.02741000E-01  3.60000000E-02
  7.50000000E-01
Contraction coefficients                   R   N=         171
  8.38048061E-04  6.24658555E-03  3.20279259E-02  1.27089706E-01  3.90919096E-01
  5.46428736E-01  1.80779881E-01  6.22389591E-01  2.49529836E-01  1.00000000E+00
  1.00000000E+00  1.00000000E+00  1.00000000E+00  1.00000000E+00  1.00000000E+00
  2.25649138E-02  1.83629299E-01  8.59836716E-01  3.43452625E-01  5.05613865E-01
  2.62242005E-01  6.41295900E-02  3.78837578E-01  6.16686058E-01  1.00000000E+00
  1.00000000E+00  1.00000000E+00  1.00000000E+00  3.09571716E-02  1.74800969E-01
  4.43462457E-01  5.67023142E-01  1.00000000E+00  1.00000000E+00  1.00000000E+00
  1.96978815E-03  1.49612859E-02  7.35005308E-02  2.48936766E-01  6.02459433E-01
  2.56201759E-01  1.11906080E-01  9.21666655E-01 -2.56919183E-03  1.00000000E+00
  1.00000000E+00  1.00000000E+00  1.00000000E+00  2.54938145E-02  1.90373109E-01
  8.52161486E-01  1.00000000E+00  1.00000000E+00  1.00000000E+00  1.00000000E+00
  2.54938145E-02  1.90373109E-01  8.52161486E-01  1.00000000E+00  1.00000000E+00
  1.00000000E+00  1.00000000E+00  2.54938145E-02  1.90373109E-01  8.52161486E-01
  1.00000000E+00  1.00000000E+00  1.00000000E+00  1.00000000E+00  1.96665025E-03
  1.52306019E-02  7.61269097E-02  2.60801033E-01  6.16462078E-01  2.21006028E-01
  1.14660081E-01  9.19999648E-01 -3.03068213E-03  1.00000000E+00  1.00000000E+00
  1.00000000E+00  1.00000000E+00  1.96665025E-03  1.52306019E-02  7.61269097E-02
  2.60801033E-01  6.16462078E-01  2.21006028E-01  1.14660081E-01  9.19999648E-01
 -3.03068213E-03  1.00000000E+00  1.00000000E+00  1.00000000E+00  1.00000000E+00
  1.96665025E-03  1.52306019E-02  7.61269097E-02  2.60801033E-01  6.16462078E-01
  2.21006028E-01  1.14660081E-01  9.19999648E-01 -3.03068213E-03  1.00000000E+00
  1.00000000E+00  1.00000000E+00  1.00000000E+00  2.54938145E-02  1.90373109E-01
  8.52161486E-01  1.00000000E+00  1.00000000E+00  1.00000000E+00  1.00000000E+00
  2.54938145E-02  1.90373109E-01  8.52161486E-01  1.00000000E+00  1.00000000E+00
  1.00000000E+00  1.00000000E+00  2.54938145E-02  1.90373109E-01  8.52161486E-01
  1.00000000E+00  1.00000000E+00  1.00000000E+00  1.00000000E+00  2.54938145E-02
  1.90373109E-01  8.52161486E-01  1.00000000E+00  1.00000000E+00  1.00000000E+00
  1.00000000E+00  2.54938145E-02  1.90373109E-01  8.52161486E-01  1.00000000E+00
  1.00000000E+00  1.00000000E+00  1.00000000E+00  2.54938145E-02  1.90373109E-01
  8.52161486E-01  1.00000000E+00  1.00000000E+00  1.00000000E+00  1.00000000E+00
  2.54938145E-02  1.90373109E-01  8.52161486E-01  1.00000000E+00  1.00000000E+00
  1.00000000E+00  1.00000000E+00  2.54938145E-02  1.90373109E-01  8.52161486E-01
  1.00000000E+00  1.00000000E+00  1.00000000E+00  1.00000000E+00  2.54938145E-02
  1.90373109E-01  8.52161486E-01  1.00000000E+00  1.00000000E+00  1.00000000E+00
  1.00000000E+00
P(S=P) Contraction coefficients            R   N=         171
  0.00000000E+00  0.00000000E+00  0.00000000E+00  0.00000000E+00  0.00000000E+00
  0.00000000E+00  0.00000000E+00  0.00000000E+00  0.00000000E+00  0.00000000E+00
  0.00000000E+00  0.00000000E+00  0.00000000E+00  0.00000000E+00  0.00000000E+00
  0.00000000E+00  0.00000000E+00  0.00000000E+00  0.00000000E+00  0.00000000E+00
  0.00000000E+00  0.00000000E+00  0.00000000E+00  0.00000000E+00  0.00000000E+00
  0.00000000E+00  0.00000000E+00  0.00000000E+00  0.00000000E+00  0.00000000E+00
  0.00000000E+00  0.00000000E+00  0.00000000E+00  1.00000000E+00  0.00000000E+00
  0.00000000E+00  0.00000000E+00  0.00000000E+00  0.00000000E+00  0.00000000E+00
  0.00000000E+00  3.83119186E-02  2.37403116E-01  8.17592398E-01  1.00000000E+00
  1.00000000E+00  1.00000000E+00  0.00000000E+00  0.00000000E+00  0.00000000E+00
  0.00000000E+00  0.00000000E+00  0.00000000E+00  0.00000000E+00  0.00000000E+00
  0.00000000E+00  0.00000000E+00  0.00000000E+00  0.00000000E+00  0.00000000E+00
  0.00000000E+00  0.00000000E+00  0.00000000E+00  0.00000000E+00  0.00000000E+00
  0.00000000E+00  0.00000000E+00  0.00000000E+00  0.00000000E+00  0.00000000E+00
  0.00000000E+00  0.00000000E+00  0.00000000E+00  0.00000000E+00  0.00000000E+00
  4.02486927E-02  2.37593957E-01  8.15853851E-01  1.00000000E+00  1.00000000E+00
  1.00000000E+00  0.00000000E+00  0.00000000E+00  0.00000000E+00  0.00000000E+00
  0.00000000E+00  0.00000000E+00  0.00000000E+00  4.02486927E-02  2.37593957E-01
  8.15853851E-01  1.00000000E+00  1.00000000E+00  1.00000000E+00  0.00000000E+00
  0.00000000E+00  0.00000000E+00  0.00000000E+00  0.00000000E+00  0.00000000E+00
  0.00000000E+00  4.02486927E-02  2.37593957E-01  8.15853851E-01  1.00000000E+00
  1.00000000E+00  1.00000000E+00  0.00000000E+00  0.00000000E+00  0.00000000E+00
  0.00000000E+00  0.00000000E+00  0.00000000E+00  0.00000000E+00  0.00000000E+00
  0.00000000E+00  0.00000000E+00  0.00000000E+00  0.00000000E+00  0.00000000E+00
  0.00000000E+00  0.00000000E+00  0.00000000E+00  0.00000000E+00  0.00000000E+00
  0.00000000E+00  0.00000000E+00  0.00000000E+00  0.00000000E+00  0.00000000E+00
  0.00000000E+00  0.00000000E+00  0.00000000E+00  0.00000000E+00  0.00000000E+00
  0.00000000E+00  0.00000000E+00  0.00000000E+00  0.00000000E+00  0.00000000E+00
  0.00000000E+00  0.00000000E+00  0.00000000E+00  0.00000000E+00  0.00000000E+00
  0.00000000E+00  0.00000000E+00  0.00000000E+00  0.00000000E+00  0.00000000E+00
  0.00000000E+00  0.00000000E+00  0.00000000E+00  0.00000000E+00  0.00000000E+00
  0.00000000E+00  0.00000000E+00  0.00000000E+00  0.00000000E+00  0.00000000E+00
  0.00000000E+00  0.00000000E+00  0.00000000E+00  0.00000000E+00  0.00000000E+00
  0.00000000E+00  0.00000000E+00  0.00000000E+00  0.00000000E+00  0.00000000E+00
  0.00000000E+00
Coordinates of each shell                  R   N=         309
 -1.18444692E-32  2.94686412E-33  2.44002551E+00 -1.18444692E-32  2.94686412E-33
  2.44002551E+00 -1.18444692E-32  2.94686412E-33  2.44002551E+00 -1.18444692E-32
  2.94686412E-33  2.44002551E+00 -1.18444692E-32  2.94686412E-33  2.44002551E+00
 -1.18444692E-32  2.94686412E-33  2.44002551E+00 -1.18444692E-32  2.94686412E-33
  2.44002551E+00 -1.18444692E-32  2.94686412E-33  2.44002551E+00 -1.18444692E-32
  2.94686412E-33  2.44002551E+00 -1.18444692E-32  2.94686412E-33  2.44002551E+00
 -1.18444692E-32  2.94686412E-33  2.44002551E+00 -1.18444692E-32  2.94686412E-33
  2.44002551E+00 -1.18444692E-32  2.94686412E-33  2.44002551E+00 -1.18444692E-32
  2.94686412E-33  2.44002551E+00 -1.18444692E-32  2.94686412E-33  2.44002551E+00
 -1.18444692E-32  2.94686412E-33  2.44002551E+00 -1.18444692E-32  2.94686412E-33
  2.44002551E+00 -1.18444692E-32  2.94686412E-33  2.44002551E+00 -1.18444692E-32
  2.94686412E-33  2.44002551E+00  9.65372385E-33 -2.06415727E-33 -1.70913764E+00
  9.65372385E-33 -2.06415727E-33 -1.70913764E+00  9.65372385E-33 -2.06415727E-33
 -1.70913764E+00  9.65372385E-33 -2.06415727E-33 -1.70913764E+00  9.65372385E-33
 -2.06415727E-33 -1.70913764E+00  9.65372385E-33 -2.06415727E-33 -1.70913764E+00
 -9.00372249E-33 -2.95338466E+00  2.88370273E+00 -9.00372249E-33 -2.95338466E+00
  2.88370273E+00 -9.00372249E-33 -2.95338466E+00  2.88370273E+00 -9.00372249E-33
 -2.95338466E+00  2.88370273E+00 -9.00372249E-33 -2.95338466E+00  2.88370273E+00
  2.55770614E+00  1.47669233E+00  2.88370273E+00  2.55770614E+00  1.47669233E+00
  2.88370273E+00  2.55770614E+00  1.47669233E+00  2.88370273E+00  2.55770614E+00
  1.47669233E+00  2.88370273E+00  2.55770614E+00  1.47669233E+00  2.88370273E+00
 -2.55770614E+00  1.47669233E+00  2.88370273E+00 -2.55770614E+00  1.47669233E+00
  2.88370273E+00 -2.55770614E+00  1.47669233E+00  2.88370273E+00 -2.55770614E+00
  1.47669233E+00  2.88370273E+00 -2.55770614E+00  1.47669233E+00  2.88370273E+00
 -1.78148520E-33  2.64637790E+00 -2.60763940E+00 -1.78148520E-33  2.64637790E+00
 -2.60763940E+00 -1.78148520E-33  2.64637790E+00 -2.60763940E+00 -1.78148520E-33
  2.64637790E+00 -2.60763940E+00 -1.78148520E-33  2.64637790E+00 -2.60763940E+00
 -1.78148520E-33  2.64637790E+00 -2.60763940E+00  2.29183049E+00 -1.32318895E+00
 -2.60763940E+00  2.29183049E+00 -1.32318895E+00 -2.60763940E+00  2.29183049E+00
 -1.32318895E+00 -2.60763940E+00  2.29183049E+00 -1.32318895E+00 -2.60763940E+00
  2.29183049E+00 -1.32318895E+00 -2.60763940E+00  2.29183049E+00 -1.32318895E+00
 -2.60763940E+00 -2.29183049E+00 -1.32318895E+00 -2.60763940E+00 -2.29183049E+00
 -1.32318895E+00 -2.60763940E+00 -2.29183049E+00 -1.32318895E+00 -2.60763940E+00
 -2.29183049E+00 -1.32318895E+00 -2.60763940E+00 -2.29183049E+00 -1.32318895E+00
 -2.60763940E+00 -2.29183049E+00 -1.32318895E+00 -2.60763940E+00  1.67403316E+00
  3.61046003E+00 -1.89144358E+00  1.67403316E+00  3.61046003E+00 -1.89144358E+00
  1.67403316E+00  3.61046003E+00 -1.89144358E+00  1.67403316E+00  3.61046003E+00
 -1.89144358E+00  1.67403316E+00  3.61046003E+00 -1.89144358E+00  4.81482486E-34
  2.72319022E+00 -4.68058829E+00  4.81482486E-34  2.72319022E+00 -4.68058829E+00
  4.81482486E-34  2.72319022E+00 -4.68058829E+00  4.81482486E-34  2.72319022E+00
 -4.68058829E+00  4.81482486E-34  2.72319022E+00 -4.68058829E+00 -1.67403316E+00
  3.61046003E+00 -1.89144358E+00 -1.67403316E+00  3.61046003E+00 -1.89144358E+00
 -1.67403316E+00  3.61046003E+00 -1.89144358E+00 -1.67403316E+00  3.61046003E+00
 -1.89144358E+00 -1.67403316E+00  3.61046003E+00 -1.89144358E+00  2.28973352E+00
 -3.25498526E+00 -1.89144358E+00  2.28973352E+00 -3.25498526E+00 -1.89144358E+00
  2.28973352E+00 -3.25498526E+00 -1.89144358E+00  2.28973352E+00 -3.25498526E+00
 -1.89144358E+00  2.28973352E+00 -3.25498526E+00 -1.89144358E+00  2.35835191E+00
 -1.36159511E+00 -4.68058829E+00  2.35835191E+00 -1.36159511E+00 -4.68058829E+00
  2.35835191E+00 -1.36159511E+00 -4.68058829E+00  2.35835191E+00 -1.36159511E+00
 -4.68058829E+00  2.35835191E+00 -1.36159511E+00 -4.68058829E+00  3.96376669E+00
 -3.55474769E-01 -1.89144358E+00  3.96376669E+00 -3.55474769E-01 -1.89144358E+00
  3.96376669E+00 -3.55474769E-01 -1.89144358E+00  3.96376669E+00 -3.55474769E-01
 -1.89144358E+00  3.96376669E+00 -3.55474769E-01 -1.89144358E+00 -3.96376669E+00
 -3.55474769E-01 -1.89144358E+00 -3.96376669E+00 -3.55474769E-01 -1.89144358E+00
 -3.96376669E+00 -3.55474769E-01 -1.89144358E+00 -3.96376669E+00 -3.55474769E-01
 -1.89144358E+00 -3.96376669E+00 -3.55474769E-01 -1.89144358E+00 -2.35835191E+00
 -1.36159511E+00 -4.68058829E+00 -2.35835191E+00 -1.36159511E+00 -4.68058829E+00
 -2.35835191E+00 -1.36159511E+00 -4.68058829E+00 -2.35835191E+00 -1.36159511E+00
 -4.68058829E+00 -2.35835191E+00 -1.36159511E+00 -4.68058829E+00 -2.28973352E+00
 -3.25498526E+00 -1.89144358E+00 -2.28973352E+00 -3.25498526E+00 -1.89144358E+00
 -2.28973352E+00 -3.25498526E+00 -1.89144358E+00 -2.28973352E+00 -3.25498526E+00
 -1.89144358E+00 -2.28973352E+00 -3.25498526E+00 -1.89144358E+00
Alpha Orbital Energies                     R   N=         220
 -3.72485912E+02 -4.58630790E+01 -4.06166206E+01 -4.06140620E+01 -4.06140620E+01
 -1.43761512E+01 -1.02165995E+01 -1.02165995E+01 -1.02165928E+01 -5.44311594E+00
 -3.73094572E+00 -3.72416589E+00 -3.72416589E+00 -9.68047141E-01 -7.81902566E-01
 -7.77733662E-01 -7.77733662E-01 -7.74188511E-01 -7.74188511E-01 -7.39513494E-01
 -7.39513494E-01 -6.30844728E-01 -5.23921580E-01 -5.01810649E-01 -5.01810649E-01
 -4.31350113E-01 -4.31350113E-01 -4.09321543E-01 -4.02238981E-01 -3.97166192E-01
 -3.97166192E-01 -2.95279676E-01 -2.67825478E-01 -2.67825478E-01 -2.31861155E-02
  1.52433303E-03  1.52433303E-03  4.24386693E-03  1.09520059E-02  2.01754208E-02
  2.46923481E-02  2.46923481E-02  3.45304792E-02  3.45304792E-02  3.71934377E-02
  5.45967040E-02  5.50850788E-02  5.50850788E-02  6.98183133E-02  7.39781166E-02
  7.39781166E-02  7.69886257E-02  8.72227872E-02  8.72227872E-02  1.09144635E-01
  1.09144635E-01  1.20448689E-01  1.28497553E-01  1.28497553E-01  1.34337283E-01
  1.34337283E-01  1.36305514E-01  1.43896050E-01  1.54448651E-01  1.54448651E-01
  1.61686681E-01  1.68010444E-01  1.68010444E-01  1.69481021E-01  1.76046516E-01
  1.94713980E-01  1.94713980E-01  2.00122461E-01  2.22382258E-01  2.27332736E-01
  2.27332736E-01  2.31796184E-01  2.31796184E-01  2.59744794E-01  2.59744794E-01
  2.81124763E-01  3.04677464E-01  3.16198064E-01  3.16198064E-01  3.78807249E-01
  3.82979720E-01  3.82979720E-01  4.10864934E-01  4.10864934E-01  4.36180601E-01
  4.76665321E-01  4.97955447E-01  4.97955447E-01  5.18463477E-01  5.37096861E-01
  5.37096861E-01  5.41771039E-01  5.76223212E-01  5.89699093E-01  5.89699093E-01
  6.03877701E-01  6.18093633E-01  6.18093633E-01  6.24113526E-01  6.24113526E-01
  6.31393362E-01  6.43105698E-01  6.81525499E-01  6.81525499E-01  7.47975150E-01
  7.47975150E-01  7.65088676E-01  7.96841603E-01  7.96841603E-01  7.97564858E-01
  8.59609628E-01  8.67607027E-01  8.67607027E-01  9.94014700E-01  9.94014700E-01
  1.02715052E+00  1.02757397E+00  1.02757397E+00  1.16130353E+00  1.32854994E+00
  1.33091147E+00  1.37323438E+00  1.37323438E+00  1.42400551E+00  1.42400551E+00
  1.42960103E+00  1.47638695E+00  1.50291302E+00  1.50291302E+00  1.54931776E+00
  1.55188645E+00  1.55188645E+00  1.57147313E+00  1.57147313E+00  1.63150418E+00
  1.65180484E+00  1.65180484E+00  1.67158962E+00  1.67804290E+00  1.67804290E+00
  1.70704861E+00  1.72285596E+00  1.73685732E+00  1.73685732E+00  1.77129604E+00
  1.77129604E+00  1.77370718E+00  1.82217776E+00  1.83518115E+00  1.83518115E+00
  1.96500937E+00  1.96500937E+00  2.01718341E+00  2.04344416E+00  2.04344416E+00
  2.09569081E+00  2.09569081E+00  2.15326554E+00  2.15326554E+00  2.16554318E+00
  2.17911114E+00  2.28548627E+00  2.33987375E+00  2.33987375E+00  2.39757147E+00
  2.39757147E+00  2.45134686E+00  2.45134686E+00  2.45306795E+00  2.48673316E+00
  2.51055083E+00  2.51055083E+00  2.51181579E+00  2.59367647E+00  2.59367647E+00
  2.61346346E+00  2.65185459E+00  2.65185459E+00  2.68911380E+00  2.70986163E+00
  2.70986163E+00  2.75316129E+00  2.79814028E+00  2.80365275E+00  2.80365275E+00
  2.90999066E+00  2.90999066E+00  3.03879442E+00  3.09903593E+00  3.09903593E+00
  3.54322053E+00  3.54322053E+00  3.65537764E+00  3.74772794E+00  3.75148063E+00
  3.75148063E+00  3.79725505E+00  3.79725505E+00  3.80720270E+00  4.02221053E+00
  4.02221053E+00  4.02239121E+00  4.26281672E+00  4.77230438E+00  4.77230438E+00
  5.20246422E+00  2.39185882E+01  2.39302900E+01  2.39302900E+01  3.54574472E+01
  4.05773484E+01  2.07603397E+02  2.07603397E+02  2.07622011E+02  7.86618058E+02
Alpha MO coefficients                      R   N=       48400
  4.02447479E-01  6.60842391E-01  1.16135228E-02 -3.19413002E-03  1.36071213E-03
 -6.18969397E-04  2.88040785E-04 -3.58450254E-04  0.00000000E+00 -1.60747722E-16
 -2.22125546E-06  0.00000000E+00  1.19137840E-16 -1.69257749E-07  0.00000000E+00
 -8.42691628E-17 -2.95007285E-06  0.00000000E+00  8.08346130E-17  8.49997689E-06
  0.00000000E+00  9.23532398E-17 -2.42661147E-05  0.00000000E+00 -5.30732841E-16
  5.26317395E-06  0.00000000E+00  1.26301205E-15  9.53084775E-05  8.56171238E-07
  0.00000000E+00  2.41608140E-17 -5.00111497E-18  0.00000000E+00 -2.00081678E-06
  0.00000000E+00 -1.36448905E-16 -1.48698917E-17  0.00000000E+00  4.67849658E-06
  0.00000000E+00 -2.66459262E-16 -8.75757510E-06 -2.78053378E-06  0.00000000E+00
  3.96227765E-16 -4.59049550E-17  0.00000000E+00  8.07094622E-07 -2.23864740E-06
  0.00000000E+00 -4.23344364E-16 -2.94621486E-06  1.61423089E-05  0.00000000E+00
  1.29193122E-15  1.53080638E-05 -5.53804274E-05  0.00000000E+00 -2.15516672E-15