Cl down 2 H down                                                        
Freq      RMP2-FC                                                     6-31G(d)
Number of atoms                            I               13
Charge                                     I                0
Multiplicity                               I                1
Number of electrons                        I               50
Number of alpha electrons                  I               25
Number of beta electrons                   I               25
Number of basis functions                  I               95
Number of independant functions            I               95
Number of contracted shells                I               37
Highest angular momentum                   I                2
Largest degree of contraction              I                6
Number of primitive shells                 I               93
Viriral Ratio                              R      2.000760921541694E+00
SCF Energy                                 R     -6.321786585946516E+02
MP2 Energy                                 R     -6.328679318207123E+02
Total Energy                               R     -6.328679318207123E+02
Post-SCF wavefunction norm                 R      1.568196655409116E+00
RMS Force                                  R      3.225886113558448E-06
RMS Density                                R      2.241703356156522E-10
Atomic numbers                             I   N=          13
           7           6           6           6          17           1
           1           1           1           1           1           1
           1
Nuclear charges                            R   N=          13
  7.00000000E+00  6.00000000E+00  6.00000000E+00  6.00000000E+00  1.70000000E+01
  1.00000000E+00  1.00000000E+00  1.00000000E+00  1.00000000E+00  1.00000000E+00
  1.00000000E+00  1.00000000E+00  1.00000000E+00
Current cartesian coordinates              R   N=          39
 -2.01983912E+00  1.73294733E-01  6.66513286E-17  3.16532824E-16  1.89239255E+00
  8.07730619E-17 -2.22137739E+00 -1.34222881E+00  2.29083596E+00 -2.22137739E+00
 -1.34222881E+00 -2.29083596E+00  3.21414299E+00  4.56784938E-01 -2.63461128E-17
 -6.93845610E-01 -2.74169634E+00  2.45153030E+00 -6.93845610E-01 -2.74169634E+00
 -2.45153030E+00 -3.44453860E-02  3.05650088E+00  1.69736356E+00 -3.44453860E-02
  3.05650088E+00 -1.69736356E+00 -4.03521416E+00 -2.32875021E+00  2.28004194E+00
 -2.15900899E+00 -9.90626803E-02  3.93869907E+00 -2.15900899E+00 -9.90626803E-02
 -3.93869907E+00 -4.03521416E+00 -2.32875021E+00 -2.28004194E+00
Atom types                                 I   N=          13
           0           0           0           0           0           0
           0           0           0           0           0           0
           0
Force Field                                I                0
MM charges                                 R   N=          13
  0.00000000E+00  0.00000000E+00  0.00000000E+00  0.00000000E+00  0.00000000E+00
  0.00000000E+00  0.00000000E+00  0.00000000E+00  0.00000000E+00  0.00000000E+00
  0.00000000E+00  0.00000000E+00  0.00000000E+00
ONIOM Charges                              I   N=           4
           0           0           0           0
ONIOM Multiplicities                       I   N=           4
           1           0           0           0
Atom Layers                                I   N=          13
           0           0           0           0           0           0
           0           0           0           0           0           0
           0
Atom Modifiers                             I   N=          13
           0           0           0           0           0           0
           0           0           0           0           0           0
           0
Atom types                                 I   N=          13
           0           0           0           0           0           0
           0           0           0           0           0           0
           0
Link Atoms                                 I   N=          13
           0           0           0           0           0           0
           0           0           0           0           0           0
           0
Atom Modified MM Charges                   R   N=          13
  0.00000000E+00  0.00000000E+00  0.00000000E+00  0.00000000E+00  0.00000000E+00
  0.00000000E+00  0.00000000E+00  0.00000000E+00  0.00000000E+00  0.00000000E+00
  0.00000000E+00  0.00000000E+00  0.00000000E+00
Link Distances                             R   N=          13
  0.00000000E+00  0.00000000E+00  0.00000000E+00  0.00000000E+00  0.00000000E+00
  0.00000000E+00  0.00000000E+00  0.00000000E+00  0.00000000E+00  0.00000000E+00
  0.00000000E+00  0.00000000E+00  0.00000000E+00
MxBond                                     I                4
NBond                                      I   N=          13
           3           4           4           4           1           1
           1           1           1           1           1           1
           1
IBond                                      I   N=          52
           2           3           4           0           1           5
           8           9           1           6          10          11
           1           7          12          13           2           0
           0           0           3           0           0           0
           4           0           0           0           2           0
           0           0           2           0           0           0
           3           0           0           0           3           0
           0           0           4           0           0           0
           4           0           0           0
RBond                                      R   N=          52
  1.00000000E+00  1.00000000E+00  1.00000000E+00  0.00000000E+00  1.00000000E+00
  1.00000000E+00  1.00000000E+00  1.00000000E+00  1.00000000E+00  1.00000000E+00
  1.00000000E+00  1.00000000E+00  1.00000000E+00  1.00000000E+00  1.00000000E+00
  1.00000000E+00  1.00000000E+00  0.00000000E+00  0.00000000E+00  0.00000000E+00
  1.00000000E+00  0.00000000E+00  0.00000000E+00  0.00000000E+00  1.00000000E+00
  0.00000000E+00  0.00000000E+00  0.00000000E+00  1.00000000E+00  0.00000000E+00
  0.00000000E+00  0.00000000E+00  1.00000000E+00  0.00000000E+00  0.00000000E+00
  0.00000000E+00  1.00000000E+00  0.00000000E+00  0.00000000E+00  0.00000000E+00
  1.00000000E+00  0.00000000E+00  0.00000000E+00  0.00000000E+00  1.00000000E+00
  0.00000000E+00  0.00000000E+00  0.00000000E+00  1.00000000E+00  0.00000000E+00
  0.00000000E+00  0.00000000E+00
Shell types                                I   N=          37
           0          -1          -1           2           0          -1
          -1           2           0          -1          -1           2
           0          -1          -1           2           0          -1
          -1          -1           2           0           0           0
           0           0           0           0           0           0
           0           0           0           0           0           0
           0
Number of primitives per shell             I   N=          37
           6           3           1           1           6           3
           1           1           6           3           1           1
           6           3           1           1           6           6
           3           1           1           3           1           3
           1           3           1           3           1           3
           1           3           1           3           1           3
           1
Shell to atom map                          I   N=          37
           1           1           1           1           2           2
           2           2           3           3           3           3
           4           4           4           4           5           5
           5           5           5           6           6           7
           7           8           8           9           9          10
          10          11          11          12          12          13
          13
Primitive exponents                        R   N=          93
  4.17351146E+03  6.27457911E+02  1.42902093E+02  4.02343293E+01  1.28202129E+01
  4.39043701E+00  1.16263619E+01  2.71627981E+00  7.72218397E-01  2.12031498E-01
  8.00000000E-01  3.04752488E+03  4.57369518E+02  1.03948685E+02  2.92101553E+01
  9.28666296E+00  3.16392696E+00  7.86827235E+00  1.88128854E+00  5.44249258E-01
  1.68714478E-01  8.00000000E-01  3.04752488E+03  4.57369518E+02  1.03948685E+02
  2.92101553E+01  9.28666296E+00  3.16392696E+00  7.86827235E+00  1.88128854E+00
  5.44249258E-01  1.68714478E-01  8.00000000E-01  3.04752488E+03  4.57369518E+02
  1.03948685E+02  2.92101553E+01  9.28666296E+00  3.16392696E+00  7.86827235E+00
  1.88128854E+00  5.44249258E-01  1.68714478E-01  8.00000000E-01  2.51801000E+04
  3.78035000E+03  8.60474000E+02  2.42145000E+02  7.73349000E+01  2.62470000E+01
  4.91765000E+02  1.16984000E+02  3.74153000E+01  1.37834000E+01  5.45215000E+00
  2.22588000E+00  3.18649000E+00  1.14427000E+00  4.20377000E-01  1.42657000E-01
  7.50000000E-01  1.87311370E+01  2.82539436E+00  6.40121692E-01  1.61277759E-01
  1.87311370E+01  2.82539436E+00  6.40121692E-01  1.61277759E-01  1.87311370E+01
  2.82539436E+00  6.40121692E-01  1.61277759E-01  1.87311370E+01  2.82539436E+00
  6.40121692E-01  1.61277759E-01  1.87311370E+01  2.82539436E+00  6.40121692E-01
  1.61277759E-01  1.87311370E+01  2.82539436E+00  6.40121692E-01  1.61277759E-01
  1.87311370E+01  2.82539436E+00  6.40121692E-01  1.61277759E-01  1.87311370E+01
  2.82539436E+00  6.40121692E-01  1.61277759E-01
Contraction coefficients                   R   N=          93
  1.83477216E-03  1.39946270E-02  6.85865518E-02  2.32240873E-01  4.69069948E-01
  3.60455199E-01 -1.14961182E-01 -1.69117479E-01  1.14585195E+00  1.00000000E+00
  1.00000000E+00  1.83473713E-03  1.40373228E-02  6.88426223E-02  2.32184443E-01
  4.67941348E-01  3.62311985E-01 -1.19332420E-01 -1.60854152E-01  1.14345644E+00
  1.00000000E+00  1.00000000E+00  1.83473713E-03  1.40373228E-02  6.88426223E-02
  2.32184443E-01  4.67941348E-01  3.62311985E-01 -1.19332420E-01 -1.60854152E-01
  1.14345644E+00  1.00000000E+00  1.00000000E+00  1.83473713E-03  1.40373228E-02
  6.88426223E-02  2.32184443E-01  4.67941348E-01  3.62311985E-01 -1.19332420E-01
 -1.60854152E-01  1.14345644E+00  1.00000000E+00  1.00000000E+00  1.83295985E-03
  1.40341988E-02  6.90973943E-02  2.37451980E-01  4.83033960E-01  3.39855972E-01
 -2.29739142E-03 -3.07137189E-02 -1.12528069E-01  4.50163278E-02  5.89353363E-01
  4.65206287E-01 -2.51828028E-01  6.15892514E-02  1.06018433E+00  1.00000000E+00
  1.00000000E+00  3.34946043E-02  2.34726953E-01  8.13757326E-01  1.00000000E+00
  3.34946043E-02  2.34726953E-01  8.13757326E-01  1.00000000E+00  3.34946043E-02
  2.34726953E-01  8.13757326E-01  1.00000000E+00  3.34946043E-02  2.34726953E-01
  8.13757326E-01  1.00000000E+00  3.34946043E-02  2.34726953E-01  8.13757326E-01
  1.00000000E+00  3.34946043E-02  2.34726953E-01  8.13757326E-01  1.00000000E+00
  3.34946043E-02  2.34726953E-01  8.13757326E-01  1.00000000E+00  3.34946043E-02
  2.34726953E-01  8.13757326E-01  1.00000000E+00
P(S=P) Contraction coefficients            R   N=          93
  0.00000000E+00  0.00000000E+00  0.00000000E+00  0.00000000E+00  0.00000000E+00
  0.00000000E+00  6.75797439E-02  3.23907296E-01  7.40895140E-01  1.00000000E+00
  0.00000000E+00  0.00000000E+00  0.00000000E+00  0.00000000E+00  0.00000000E+00
  0.00000000E+00  0.00000000E+00  6.89990666E-02  3.16423961E-01  7.44308291E-01
  1.00000000E+00  0.00000000E+00  0.00000000E+00  0.00000000E+00  0.00000000E+00
  0.00000000E+00  0.00000000E+00  0.00000000E+00  6.89990666E-02  3.16423961E-01
  7.44308291E-01  1.00000000E+00  0.00000000E+00  0.00000000E+00  0.00000000E+00
  0.00000000E+00  0.00000000E+00  0.00000000E+00  0.00000000E+00  6.89990666E-02
  3.16423961E-01  7.44308291E-01  1.00000000E+00  0.00000000E+00  0.00000000E+00
  0.00000000E+00  0.00000000E+00  0.00000000E+00  0.00000000E+00  0.00000000E+00
  3.98940088E-03  3.03177067E-02  1.29880029E-01  3.27951072E-01  4.53527100E-01
  2.52154056E-01 -1.42993147E-02  3.23572333E-01  7.43507765E-01  1.00000000E+00
  0.00000000E+00  0.00000000E+00  0.00000000E+00  0.00000000E+00  0.00000000E+00
  0.00000000E+00  0.00000000E+00  0.00000000E+00  0.00000000E+00  0.00000000E+00
  0.00000000E+00  0.00000000E+00  0.00000000E+00  0.00000000E+00  0.00000000E+00
  0.00000000E+00  0.00000000E+00  0.00000000E+00  0.00000000E+00  0.00000000E+00
  0.00000000E+00  0.00000000E+00  0.00000000E+00  0.00000000E+00  0.00000000E+00
  0.00000000E+00  0.00000000E+00  0.00000000E+00  0.00000000E+00  0.00000000E+00
  0.00000000E+00  0.00000000E+00  0.00000000E+00
Coordinates of each shell                  R   N=         111
 -2.01983912E+00  1.73294733E-01  6.66513286E-17 -2.01983912E+00  1.73294733E-01
  6.66513286E-17 -2.01983912E+00  1.73294733E-01  6.66513286E-17 -2.01983912E+00
  1.73294733E-01  6.66513286E-17  3.16532824E-16  1.89239255E+00  8.07730619E-17
  3.16532824E-16  1.89239255E+00  8.07730619E-17  3.16532824E-16  1.89239255E+00
  8.07730619E-17  3.16532824E-16  1.89239255E+00  8.07730619E-17 -2.22137739E+00
 -1.34222881E+00  2.29083596E+00 -2.22137739E+00 -1.34222881E+00  2.29083596E+00
 -2.22137739E+00 -1.34222881E+00  2.29083596E+00 -2.22137739E+00 -1.34222881E+00
  2.29083596E+00 -2.22137739E+00 -1.34222881E+00 -2.29083596E+00 -2.22137739E+00
 -1.34222881E+00 -2.29083596E+00 -2.22137739E+00 -1.34222881E+00 -2.29083596E+00
 -2.22137739E+00 -1.34222881E+00 -2.29083596E+00  3.21414299E+00  4.56784938E-01
 -2.63461128E-17  3.21414299E+00  4.56784938E-01 -2.63461128E-17  3.21414299E+00
  4.56784938E-01 -2.63461128E-17  3.21414299E+00  4.56784938E-01 -2.63461128E-17
  3.21414299E+00  4.56784938E-01 -2.63461128E-17 -6.93845610E-01 -2.74169634E+00
  2.45153030E+00 -6.93845610E-01 -2.74169634E+00  2.45153030E+00 -6.93845610E-01
 -2.74169634E+00 -2.45153030E+00 -6.93845610E-01 -2.74169634E+00 -2.45153030E+00
 -3.44453860E-02  3.05650088E+00  1.69736356E+00 -3.44453860E-02  3.05650088E+00
  1.69736356E+00 -3.44453860E-02  3.05650088E+00 -1.69736356E+00 -3.44453860E-02
  3.05650088E+00 -1.69736356E+00 -4.03521416E+00 -2.32875021E+00  2.28004194E+00
 -4.03521416E+00 -2.32875021E+00  2.28004194E+00 -2.15900899E+00 -9.90626803E-02
  3.93869907E+00 -2.15900899E+00 -9.90626803E-02  3.93869907E+00 -2.15900899E+00
 -9.90626803E-02 -3.93869907E+00 -2.15900899E+00 -9.90626803E-02 -3.93869907E+00
 -4.03521416E+00 -2.32875021E+00 -2.28004194E+00 -4.03521416E+00 -2.32875021E+00
 -2.28004194E+00
Alpha Orbital Energies                     R   N=          95
 -1.04791104E+02 -1.55797721E+01 -1.13240025E+01 -1.12569692E+01 -1.12569508E+01
 -1.05252645E+01 -7.99436930E+00 -7.99148487E+00 -7.99137976E+00 -1.26412703E+00
 -1.08631877E+00 -9.68759240E-01 -9.49415374E-01 -8.10141022E-01 -6.73249565E-01
 -6.67441491E-01 -6.40975577E-01 -5.68418855E-01 -5.48298890E-01 -5.44872070E-01
 -5.31470495E-01 -5.24576852E-01 -4.30450472E-01 -4.22958134E-01 -3.70821387E-01
  1.91495763E-01  2.24762620E-01  2.67101633E-01  2.79862380E-01  2.98644849E-01
  3.00625721E-01  3.17480547E-01  3.24533385E-01  3.40414486E-01  3.68678117E-01
  4.21900772E-01  4.33620351E-01  5.96674985E-01  6.49410963E-01  6.54101247E-01
  6.82265991E-01  7.19770041E-01  7.35014627E-01  7.66011844E-01  7.80053190E-01
  8.10351255E-01  8.24971360E-01  9.22549081E-01  9.50315519E-01  1.00923890E+00
  1.04755332E+00  1.08628739E+00  1.09663016E+00  1.11747212E+00  1.12661689E+00
  1.15344522E+00  1.15475455E+00  1.17342116E+00  1.17724699E+00  1.20875641E+00
  1.21691169E+00  1.23389355E+00  1.24511190E+00  1.25109428E+00  1.30916976E+00
  1.39290036E+00  1.45054152E+00  1.57764125E+00  1.68605352E+00  1.69157477E+00
  1.73627267E+00  1.77984414E+00  2.03422122E+00  2.19324282E+00  2.20837223E+00
  2.23757077E+00  2.32782974E+00  2.34004856E+00  2.40856763E+00  2.40923279E+00
  2.46489521E+00  2.49473741E+00  2.55229539E+00  2.55710764E+00  2.58862334E+00
  2.84578420E+00  2.93520903E+00  2.94499311E+00  3.13164939E+00  3.13464584E+00
  4.39575032E+00  4.63077361E+00  4.67396439E+00  4.73663409E+00  4.77559809E+00
Alpha MO coefficients                      R   N=        9025
 -2.55972324E-06  5.54263101E-06 -1.14139440E-05 -1.67479592E-06  0.00000000E+00
  6.05222886E-06 -3.81636137E-05 -5.55153841E-05  0.00000000E+00 -2.86461626E-05
 -9.46410434E-06 -1.67430577E-06 -6.00910419E-06  0.00000000E+00  0.00000000E+00
 -1.10351271E-05 -1.14859614E-05  5.43019785E-05 -1.95125211E-05  0.00000000E+00
  1.56104031E-04 -9.10004827E-05 -2.52017285E-05  0.00000000E+00  3.62702131E-06
 -6.27099397E-06 -1.78881057E-05  4.75122987E-06  0.00000000E+00  0.00000000E+00
  3.07149250E-06  1.72306570E-05  9.80417368E-06  8.50302235E-06  1.97550699E-06
 -4.59088747E-05 -5.44428728E-05 -6.77441001E-05  2.01420935E-05  9.06501663E-07
  5.99815871E-06  4.11539719E-07 -1.93640385E-06  4.76829519E-06  1.54821572E-06
  3.07149250E-06  1.72306570E-05  9.80417368E-06  8.50302235E-06 -1.97550699E-06
 -4.59088747E-05 -5.44428728E-05 -6.77441001E-05 -2.01420935E-05  9.06501663E-07
  5.99815871E-06  4.11539719E-07 -1.93640385E-06 -4.76829519E-06 -1.54821572E-06
  9.96116353E-01  1.46449250E-02 -4.77606792E-05  1.62604747E-05  0.00000000E+00
 -1.77344331E-02  5.98809827E-05 -8.86313047E-06  0.00000000E+00  1.50689272E-03
 -8.31680283E-05  1.54497789E-05  0.00000000E+00  6.25512043E-03  6.26034103E-03
  6.25722464E-03 -5.06276518E-07  0.00000000E+00  0.00000000E+00  1.58596225E-05
 -5.08473489E-05  1.58596225E-05 -5.08473489E-05 -1.36358121E-05 -6.80405099E-05
 -1.36358121E-05 -6.80405099E-05 -5.56572840E-06 -3.73093967E-05  1.10186911E-05
  1.96127978E-05  1.10186911E-05  1.96127978E-05 -5.56572840E-06 -3.73093967E-05
  9.95079006E-01  2.51708300E-02  1.10457577E-03 -6.54516670E-04  0.00000000E+00
 -3.87248626E-03 -1.19016566E-03  8.17709867E-04  0.00000000E+00 -3.08733094E-03
 -3.15220459E-03 -3.29012734E-03 -9.56209170E-05  0.00000000E+00  0.00000000E+00
  6.11701110E-06  2.70120354E-04 -1.93422199E-04 -1.99028477E-04  0.00000000E+00
  1.53992284E-03 -1.52016036E-04 -5.04731342E-04  0.00000000E+00 -2.14316090E-04
 -8.38796332E-05 -9.41123366E-05 -1.12440919E-04  0.00000000E+00  0.00000000E+00
 -7.12459087E-07  2.18849743E-04  4.37851901E-05  1.58895281E-04 -2.62342576E-04
  1.43632164E-03  2.78163523E-04  1.33554796E-04 -4.30051381E-04 -3.64693749E-05
 -1.05032088E-04 -1.09617083E-04 -1.32827824E-05 -4.84157956E-05  5.04123628E-05
 -7.12459087E-07  2.18849743E-04  4.37851901E-05  1.58895281E-04  2.62342576E-04
  1.43632164E-03  2.78163523E-04  1.33554796E-04  4.30051381E-04 -3.64693749E-05
 -1.05032088E-04 -1.09617083E-04 -1.32827824E-05  4.84157956E-05 -5.04123628E-05
  2.49532514E-08 -8.12235762E-06 -2.52945001E-05  1.95999529E-06  0.00000000E+00
  4.25703404E-05  1.28195717E-04 -9.89315117E-06  0.00000000E+00 -1.44514409E-04
  5.06971616E-05 -4.95552805E-05  0.00000000E+00 -8.67582533E-05 -2.95777247E-05
 -5.15081614E-05  2.76461795E-05  0.00000000E+00  0.00000000E+00 -1.27204515E-04
 -1.96920532E-04 -1.27204515E-04 -1.96920532E-04 -7.06140736E-05 -1.30119330E-04
 -7.06140736E-05 -1.30119330E-04 -6.02744200E-05 -1.00972819E-04 -6.41650441E-05
 -1.29337716E-04 -6.41650441E-05 -1.29337716E-04 -6.02744200E-05 -1.00972819E-04
 -2.29454349E-04  2.00403920E-04  5.35801885E-05  3.63040609E-05  0.00000000E+00
  1.43947057E-03  3.82636171E-04  6.45900696E-04  0.00000000E+00 -2.39203707E-04
 -2.00593141E-04 -1.72121404E-04 -2.56113226E-04  0.00000000E+00  0.00000000E+00
  9.95968197E-01  2.75716697E-02  3.44965866E-04 -8.01984498E-04  0.00000000E+00
 -1.43844868E-02 -7.80391638E-04  1.10906687E-03  0.00000000E+00 -1.68705458E-03
 -1.41369866E-03 -1.28261070E-03  3.31793635E-04  0.00000000E+00  0.00000000E+00
 -2.14666351E-04 -4.13328595E-04 -9.49523047E-05 -3.04502321E-05 -2.46346821E-05
  1.43006910E-03  9.27092178E-04  5.50128255E-04 -8.79060306E-05 -5.92839414E-05
  8.31238197E-06 -4.73541121E-05  7.61668380E-05 -6.40783194E-05 -7.94909000E-05
 -2.14666351E-04 -4.13328595E-04 -9.49523047E-05 -3.04502321E-05  2.46346821E-05
  1.43006910E-03  9.27092178E-04  5.50128255E-04  8.79060306E-05 -5.92839414E-05
  8.31238197E-06 -4.73541121E-05  7.61668380E-05  6.40783194E-05  7.94909000E-05
 -2.42733755E-05  2.27952314E-05  7.05495846E-05 -2.49061380E-05  0.00000000E+00
  7.29567042E-05 -4.79361861E-04  1.83229511E-04  0.00000000E+00  2.67207662E-03
 -1.56517921E-03  5.52965669E-04  0.00000000E+00  5.65393701E-05 -1.50570509E-04
 -1.43920524E-04 -3.25970442E-05  0.00000000E+00  0.00000000E+00 -1.07999122E-04
 -4.60294805E-04 -1.07999122E-04 -4.60294805E-04  1.93629697E-04  2.25786429E-03
  1.93629697E-04  2.25786429E-03  2.29672659E-05  3.96672410E-04 -1.17043879E-04
 -3.87576430E-04 -1.17043879E-04 -3.87576430E-04  2.29672659E-05  3.96672410E-04
  0.00000000E+00  0.00000000E+00  0.00000000E+00  0.00000000E+00  1.26761419E-04
  0.00000000E+00  0.00000000E+00  0.00000000E+00  5.03863751E-04  0.00000000E+00
  0.00000000E+00  0.00000000E+00  0.00000000E+00  3.05397882E-06  3.61418978E-04
  0.00000000E+00  0.00000000E+00  0.00000000E+00  0.00000000E+00 -1.65977465E-04
  0.00000000E+00  0.00000000E+00  0.00000000E+00  1.44939979E-03  0.00000000E+00
  0.00000000E+00  0.00000000E+00  0.00000000E+00 -6.84045133E-05 -7.64872608E-05
  7.04168779E-01  2.01343764E-02  7.30502460E-05  1.76693263E-04 -4.31314268E-04
 -1.05441547E-02 -2.70518628E-04  3.88948484E-04  9.04315932E-04 -1.15892998E-03
 -1.13859564E-03 -1.25347075E-03  1.67312199E-05  4.95557718E-06 -5.76614031E-06
 -7.04168779E-01 -2.01343764E-02 -7.30502460E-05 -1.76693263E-04 -4.31314268E-04
  1.05441547E-02  2.70518628E-04 -3.88948484E-04  9.04315932E-04  1.15892998E-03
  1.13859564E-03  1.25347075E-03 -1.67312199E-05  4.95557718E-06 -5.76614031E-06
  0.00000000E+00  0.00000000E+00  0.00000000E+00  0.00000000E+00  9.87157983E-06
  0.00000000E+00  0.00000000E+00  0.00000000E+00 -4.61466584E-05  0.00000000E+00
  0.00000000E+00  0.00000000E+00 -1.13872392E-04  0.00000000E+00  0.00000000E+00
  0.00000000E+00  0.00000000E+00  5.43116279E-05 -3.19601868E-05  2.18906727E-04
  2.17616749E-03 -2.18906727E-04 -2.17616749E-03 -1.36913992E-04 -6.55998885E-04
  1.36913992E-04  6.55998885E-04  1.54069641E-04  1.91719516E-03  6.43640469E-05
  1.38385419E-03 -6.43640469E-05 -1.38385419E-03 -1.54069641E-04 -1.91719516E-03
 -2.32416871E-04  4.86521812E-04  3.44154446E-05 -1.11299281E-04  0.00000000E+00
  1.24887538E-03 -6.57470170E-04 -8.82183166E-05  0.00000000E+00 -7.45877636E-06
 -2.86779077E-04 -5.74658936E-04 -1.26166915E-04  0.00000000E+00  0.00000000E+00
  1.33951046E-04 -5.20105667E-04 -8.06513215E-05  6.68200503E-05  0.00000000E+00
  1.79039328E-03 -1.45773329E-04 -1.01766197E-03  0.00000000E+00 -9.74036013E-05
  2.61162259E-05 -7.35348751E-05  1.36264992E-04  0.00000000E+00  0.00000000E+00
  7.04086575E-01  1.95965894E-02  6.88767110E-05  2.82634242E-04 -3.40248578E-04
 -8.72319211E-03 -1.31962962E-04 -4.12882377E-04 -3.72193891E-04 -1.27104907E-03
 -1.28634721E-03 -1.13044820E-03  1.29649833E-05 -1.90387286E-05 -1.10848197E-05
  7.04086575E-01  1.95965894E-02  6.88767110E-05  2.82634242E-04  3.40248578E-04
 -8.72319211E-03 -1.31962962E-04 -4.12882377E-04  3.72193891E-04 -1.27104907E-03
 -1.28634721E-03 -1.13044820E-03  1.29649833E-05  1.90387286E-05  1.10848197E-05
  1.12404126E-06 -1.42684405E-05 -3.41204383E-05  3.95831105E-06  0.00000000E+00
  4.17324275E-05  1.95818502E-04 -2.82227455E-05  0.00000000E+00 -2.64887449E-04
  7.40431810E-05  7.81382497E-06  0.00000000E+00 -1.22979175E-04 -3.02972229E-05
 -4.95056870E-05  1.33744567E-05  0.00000000E+00  0.00000000E+00  3.68212002E-05
  1.61572778E-03  3.68212002E-05  1.61572778E-03 -5.42401347E-05  3.24177682E-06
 -5.42401347E-05  3.24177682E-06  1.20511918E-05  1.45542208E-03  1.06899074E-04
  1.93290219E-03  1.06899074E-04  1.93290219E-03  1.20511918E-05  1.45542208E-03
 -4.47849365E-05 -1.92414984E-04 -8.07455995E-05  3.64284694E-05  0.00000000E+00
  8.76893794E-04  4.94152568E-04  3.24529453E-04  0.00000000E+00 -4.09109731E-05
 -6.38208669E-05 -1.96035673E-04  4.32409126E-05  0.00000000E+00  0.00000000E+00
 -1.20743336E-04  5.57162184E-04 -3.18583022E-05  1.93045673E-05  0.00000000E+00
 -6.82303025E-04  1.01368665E-03  1.39019188E-04  0.00000000E+00 -3.85763935E-04
 -6.94238025E-05  8.59404287E-05  1.45495526E-04  0.00000000E+00  0.00000000E+00
 -1.64273562E-05 -8.57671793E-05 -1.39964305E-04 -1.04250043E-04  2.43491765E-05
  5.63879111E-06  4.35244222E-04  5.63705643E-04 -7.10715626E-05 -5.90190358E-05
 -4.23795168E-05 -1.10725336E-05 -2.90499431E-05  4.62747551E-07 -2.88108964E-05
 -1.64273562E-05 -8.57671793E-05 -1.39964305E-04 -1.04250043E-04 -2.43491765E-05
  5.63879111E-06  4.35244222E-04  5.63705643E-04  7.10715626E-05 -5.90190358E-05
 -4.23795168E-05 -1.10725336E-05 -2.90499431E-05 -4.62747551E-07  2.88108964E-05
 -2.86732906E-01  1.03059975E+00 -3.30664384E-03  1.37313207E-03  0.00000000E+00
  2.63221989E-02 -1.04307419E-03  2.95776111E-04  0.00000000E+00 -6.92178889E-03
  1.31990678E-03 -3.78936488E-04  0.00000000E+00 -1.41483621E-03 -1.64794995E-03
 -1.67702244E-03 -1.19544385E-04  0.00000000E+00  0.00000000E+00 -1.77004331E-04
  5.24612861E-04 -1.77004331E-04  5.24612861E-04 -8.16002165E-05  5.67589903E-04
 -8.16002165E-05  5.67589903E-04  6.73813115E-05  3.94463293E-04 -4.36478065E-05
 -2.34707066E-04 -4.36478065E-05 -2.34707066E-04  6.73813115E-05  3.94463293E-04
  8.08319203E-05  3.97201499E-04  7.15963548E-05 -5.15323128E-05  0.00000000E+00
 -2.01180150E-03 -1.24312006E-03 -4.41951054E-04  0.00000000E+00 -1.09297116E-05
  1.60347511E-04  2.44845254E-04 -6.13441599E-05  0.00000000E+00  0.00000000E+00
 -1.04928928E-04 -1.56473223E-03  1.92124765E-04 -9.45630831E-05  0.00000000E+00
  3.83862397E-03 -7.48314745E-05 -1.24969831E-03  0.00000000E+00  8.42683025E-04
  4.25470113E-05 -3.49902259E-04 -4.76018448E-04  0.00000000E+00  0.00000000E+00
  6.15037046E-05  2.61024252E-04  1.70455572E-04  1.03492652E-04 -3.45017287E-05
 -8.47418128E-04 -6.91950624E-04 -4.99604178E-04 -6.87672814E-06  9.75391926E-05
  1.05508992E-04  9.68154273E-05  6.83501840E-06 -1.61580085E-05  2.95934246E-05
  6.15037046E-05  2.61024252E-04  1.70455572E-04  1.03492652E-04  3.45017287E-05
 -8.47418128E-04 -6.91950624E-04 -4.99604178E-04  6.87672814E-06  9.75391926E-05
  1.05508992E-04  9.68154273E-05  6.83501840E-06  1.61580085E-05 -2.95934246E-05
 -1.20270015E-03  4.47477816E-03  9.07831001E-01 -4.02050310E-01  0.00000000E+00
 -2.27024383E-03  2.08138939E-02 -9.07463163E-03  0.00000000E+00 -4.99941269E-05
 -4.76323584E-03  2.05153625E-03  0.00000000E+00 -1.45879197E-04  6.44243271E-04
  7.71163845E-04  4.24736653E-04  0.00000000E+00  0.00000000E+00  6.92329545E-05
  1.72191637E-04  6.92329545E-05  1.72191637E-04 -1.30519262E-04 -7.95401675E-04
 -1.30519262E-04 -7.95401675E-04 -2.96125091E-05 -4.39170522E-04  1.01327819E-04
  3.26865701E-04  1.01327819E-04  3.26865701E-04 -2.96125091E-05 -4.39170522E-04
  3.60834238E-07  2.93092627E-05  2.88554771E-06 -4.03889465E-05  0.00000000E+00
  3.84919662E-04 -1.84562524E-04  1.91794790E-04  0.00000000E+00 -1.18917177E-04
  5.80952005E-05  5.99874986E-05  3.40799068E-05  0.00000000E+00  0.00000000E+00
 -7.07212425E-06 -7.83500499E-06 -5.65093334E-05  1.16773358E-04  0.00000000E+00
 -4.69396104E-04  2.36020540E-04 -5.02705596E-04  0.00000000E+00 -1.54792194E-04
  1.21273706E-04 -6.47762035E-05 -5.79065563E-05  0.00000000E+00  0.00000000E+00
  1.39655009E-05  7.21481023E-05  9.29120166E-05  9.27467664E-05 -3.08071230E-05
  2.17607355E-04 -3.51287907E-04 -6.97167687E-04  1.64617942E-04  2.99671129E-05
  1.86291550E-05 -5.99870226E-07  4.47039802E-06  2.47216436E-05  3.32220364E-05
  1.39655009E-05  7.21481023E-05  9.29120166E-05  9.27467664E-05  3.08071230E-05
  2.17607355E-04 -3.51287907E-04 -6.97167687E-04 -1.64617942E-04  2.99671129E-05
  1.86291550E-05 -5.99870226E-07  4.47039802E-06 -2.47216436E-05 -3.32220364E-05
 -3.95383121E-05  1.10163823E-04  4.02253956E-01  9.08432148E-01  0.00000000E+00
 -1.60513885E-04  8.47390288E-03  1.87791281E-02  0.00000000E+00  2.21737992E-04
 -2.12553526E-03 -4.47680741E-03  0.00000000E+00 -2.24366569E-04  1.24511409E-04
 -5.74693455E-05 -1.77798010E-04  0.00000000E+00  0.00000000E+00  1.65559012E-04
 -8.28773076E-04  1.65559012E-04 -8.28773076E-04 -1.51712131E-05  5.93942362E-04
 -1.51712131E-05  5.93942362E-04 -8.08828931E-05 -3.48405360E-04  6.67921430E-05
  8.11418417E-05  6.67921430E-05  8.11418417E-05 -8.08828931E-05 -3.48405360E-04
  0.00000000E+00  0.00000000E+00  0.00000000E+00  0.00000000E+00  2.19354427E-05
  0.00000000E+00  0.00000000E+00  0.00000000E+00 -5.19436979E-04  0.00000000E+00
  0.00000000E+00  0.00000000E+00  0.00000000E+00  1.54555500E-06  2.55004866E-05
  0.00000000E+00  0.00000000E+00  0.00000000E+00  0.00000000E+00  1.66319387E-04
  0.00000000E+00  0.00000000E+00  0.00000000E+00 -8.54813072E-04  0.00000000E+00
  0.00000000E+00  0.00000000E+00  0.00000000E+00 -1.11544927E-04  6.66578804E-07
 -2.65434333E-05 -1.31261989E-04 -1.18669305E-04 -6.40812641E-05 -2.42942830E-05
  4.79324814E-04  6.22299207E-04  6.92193735E-04 -1.02182511E-04 -6.08292433E-05
 -1.25460094E-05 -1.71771564E-05 -8.98494562E-06 -2.77589453E-05 -2.10911621E-05
  2.65434333E-05  1.31261989E-04  1.18669305E-04  6.40812641E-05 -2.42942830E-05
 -4.79324814E-04 -6.22299207E-04 -6.92193735E-04 -1.02182511E-04  6.08292433E-05
  1.25460094E-05  1.71771564E-05  8.98494562E-06 -2.77589453E-05 -2.10911621E-05
  0.00000000E+00  0.00000000E+00  0.00000000E+00  0.00000000E+00  9.93537872E-01
  0.00000000E+00  0.00000000E+00  0.00000000E+00  2.04698543E-02  0.00000000E+00
  0.00000000E+00  0.00000000E+00 -4.69806368E-03  0.00000000E+00  0.00000000E+00