(pf2)2nsi calc                                                          
Freq      RHF                                                         6-31G(d)
Number of atoms                            I               11
Charge                                     I                0
Multiplicity                               I                1
Number of electrons                        I               90
Number of alpha electrons                  I               45
Number of beta electrons                   I               45
Number of basis functions                  I              138
Number of independant functions            I              138
Number of contracted shells                I               41
Highest angular momentum                   I                2
Largest degree of contraction              I                6
Number of primitive shells                 I              118
Viriral Ratio                              R      2.001274237522638E+00
SCF Energy                                 R     -1.424474468750663E+03
Total Energy                               R     -1.424474468750663E+03
RMS Force                                  R      1.824179202954985E-06
RMS Density                                R      1.713431274957657E-09
Atomic numbers                             I   N=          11
           9          15           7          15           9          14
           1           1           1           9           9
Nuclear charges                            R   N=          11
  9.00000000E+00  1.50000000E+01  7.00000000E+00  1.50000000E+01  9.00000000E+00
  1.40000000E+01  1.00000000E+00  1.00000000E+00  1.00000000E+00  9.00000000E+00
  9.00000000E+00
Current cartesian coordinates              R   N=          33
 -4.04571963E+00 -1.12426861E+00  2.14849218E+00 -2.71489747E+00 -1.61280355E+00
 -4.76729393E-01 -3.87094057E-18  2.23167658E-02 -5.93143804E-02  2.71489747E+00
 -1.61280365E+00 -4.76729095E-01 -4.25499694E+00  4.85865750E-01 -1.95333422E+00
 -9.15175054E-16  3.36365946E+00  6.26782056E-01  2.68331381E-06  4.79187010E+00
 -1.74982832E+00 -2.28173974E+00  3.91801960E+00  2.08955669E+00  2.28173721E+00
  3.91801860E+00  2.08956099E+00  4.25499686E+00  4.85865113E-01 -1.95333470E+00
  4.04571970E+00 -1.12426781E+00  2.14849228E+00
Atom types                                 I   N=          11
           0           0           0           0           0           0
           0           0           0           0           0
Force Field                                I                0
MM charges                                 R   N=          11
  0.00000000E+00  0.00000000E+00  0.00000000E+00  0.00000000E+00  0.00000000E+00
  0.00000000E+00  0.00000000E+00  0.00000000E+00  0.00000000E+00  0.00000000E+00
  0.00000000E+00
ONIOM Charges                              I   N=           4
           0           0           0           0
ONIOM Multiplicities                       I   N=           4
           1           0           0           0
Atom Layers                                I   N=          11
           0           0           0           0           0           0
           0           0           0           0           0
Atom Modifiers                             I   N=          11
           0           0           0           0           0           0
           0           0           0           0           0
Atom types                                 I   N=          11
           0           0           0           0           0           0
           0           0           0           0           0
Link Atoms                                 I   N=          11
           0           0           0           0           0           0
           0           0           0           0           0
Atom Modified MM Charges                   R   N=          11
  0.00000000E+00  0.00000000E+00  0.00000000E+00  0.00000000E+00  0.00000000E+00
  0.00000000E+00  0.00000000E+00  0.00000000E+00  0.00000000E+00  0.00000000E+00
  0.00000000E+00
Link Distances                             R   N=          11
  0.00000000E+00  0.00000000E+00  0.00000000E+00  0.00000000E+00  0.00000000E+00
  0.00000000E+00  0.00000000E+00  0.00000000E+00  0.00000000E+00  0.00000000E+00
  0.00000000E+00
MxBond                                     I                4
NBond                                      I   N=          11
           1           3           3           3           1           4
           1           1           1           1           1
IBond                                      I   N=          44
           2           0           0           0           1           3
           5           0           2           4           6           0
           3          10          11           0           2           0
           0           0           3           7           8           9
           6           0           0           0           6           0
           0           0           6           0           0           0
           4           0           0           0           4           0
           0           0
RBond                                      R   N=          44
  1.00000000E+00  0.00000000E+00  0.00000000E+00  0.00000000E+00  1.00000000E+00
  1.00000000E+00  1.00000000E+00  0.00000000E+00  1.00000000E+00  1.00000000E+00
  2.00000000E+00  0.00000000E+00  1.00000000E+00  1.00000000E+00  1.00000000E+00
  0.00000000E+00  1.00000000E+00  0.00000000E+00  0.00000000E+00  0.00000000E+00
  2.00000000E+00  1.00000000E+00  1.00000000E+00  1.00000000E+00  1.00000000E+00
  0.00000000E+00  0.00000000E+00  0.00000000E+00  1.00000000E+00  0.00000000E+00
  0.00000000E+00  0.00000000E+00  1.00000000E+00  0.00000000E+00  0.00000000E+00
  0.00000000E+00  1.00000000E+00  0.00000000E+00  0.00000000E+00  0.00000000E+00
  1.00000000E+00  0.00000000E+00  0.00000000E+00  0.00000000E+00
Shell types                                I   N=          41
           0          -1          -1           2           0          -1
          -1          -1           2           0          -1          -1
           2           0          -1          -1          -1           2
           0          -1          -1           2           0          -1
          -1          -1           2           0           0           0
           0           0           0           0          -1          -1
           2           0          -1          -1           2
Number of primitives per shell             I   N=          41
           6           3           1           1           6           6
           3           1           1           6           3           1
           1           6           6           3           1           1
           6           3           1           1           6           6
           3           1           1           3           1           3
           1           3           1           6           3           1
           1           6           3           1           1
Shell to atom map                          I   N=          41
           1           1           1           1           2           2
           2           2           2           3           3           3
           3           4           4           4           4           4
           5           5           5           5           6           6
           6           6           6           7           7           8
           8           9           9          10          10          10
          10          11          11          11          11
Primitive exponents                        R   N=         118
  7.00171309E+03  1.05136609E+03  2.39285690E+02  6.73974453E+01  2.15199573E+01
  7.40310130E+00  2.08479528E+01  4.80830834E+00  1.34406986E+00  3.58151393E-01
  8.00000000E-01  1.94133000E+04  2.90942000E+03  6.61364000E+02  1.85759000E+02
  5.91943000E+01  2.00310000E+01  3.39478000E+02  8.10101000E+01  2.58780000E+01
  9.45221000E+00  3.66566000E+00  1.46746000E+00  2.15623000E+00  7.48997000E-01
  2.83145000E-01  9.98317000E-02  5.50000000E-01  4.17351146E+03  6.27457911E+02
  1.42902093E+02  4.02343293E+01  1.28202129E+01  4.39043701E+00  1.16263619E+01
  2.71627981E+00  7.72218397E-01  2.12031498E-01  8.00000000E-01  1.94133000E+04
  2.90942000E+03  6.61364000E+02  1.85759000E+02  5.91943000E+01  2.00310000E+01
  3.39478000E+02  8.10101000E+01  2.58780000E+01  9.45221000E+00  3.66566000E+00
  1.46746000E+00  2.15623000E+00  7.48997000E-01  2.83145000E-01  9.98317000E-02
  5.50000000E-01  7.00171309E+03  1.05136609E+03  2.39285690E+02  6.73974453E+01
  2.15199573E+01  7.40310130E+00  2.08479528E+01  4.80830834E+00  1.34406986E+00
  3.58151393E-01  8.00000000E-01  1.61159000E+04  2.42558000E+03  5.53867000E+02
  1.56340000E+02  5.00683000E+01  1.70178000E+01  2.92718000E+02  6.98731000E+01
  2.23363000E+01  8.15039000E+00  3.13458000E+00  1.22543000E+00  1.72738000E+00
  5.72922000E-01  2.22192000E-01  7.78369000E-02  4.50000000E-01  1.87311370E+01
  2.82539436E+00  6.40121692E-01  1.61277759E-01  1.87311370E+01  2.82539436E+00
  6.40121692E-01  1.61277759E-01  1.87311370E+01  2.82539436E+00  6.40121692E-01
  1.61277759E-01  7.00171309E+03  1.05136609E+03  2.39285690E+02  6.73974453E+01
  2.15199573E+01  7.40310130E+00  2.08479528E+01  4.80830834E+00  1.34406986E+00
  3.58151393E-01  8.00000000E-01  7.00171309E+03  1.05136609E+03  2.39285690E+02
  6.73974453E+01  2.15199573E+01  7.40310130E+00  2.08479528E+01  4.80830834E+00
  1.34406986E+00  3.58151393E-01  8.00000000E-01
Contraction coefficients                   R   N=         118
  1.81961690E-03  1.39160796E-02  6.84053245E-02  2.33185760E-01  4.71267439E-01
  3.56618546E-01 -1.08506975E-01 -1.46451658E-01  1.12868858E+00  1.00000000E+00
  1.00000000E+00  1.85159892E-03  1.42061917E-02  6.99994593E-02  2.40078860E-01
  4.84761718E-01  3.35199805E-01 -2.78217010E-03 -3.60499014E-02 -1.16631004E-01
  9.68328036E-02  6.14418023E-01  4.03798015E-01 -2.52924114E-01  3.28518447E-02
  1.08125476E+00  1.00000000E+00  1.00000000E+00  1.83477216E-03  1.39946270E-02
  6.85865518E-02  2.32240873E-01  4.69069948E-01  3.60455199E-01 -1.14961182E-01
 -1.69117479E-01  1.14585195E+00  1.00000000E+00  1.00000000E+00  1.85159892E-03
  1.42061917E-02  6.99994593E-02  2.40078860E-01  4.84761718E-01  3.35199805E-01
 -2.78217010E-03 -3.60499014E-02 -1.16631004E-01  9.68328036E-02  6.14418023E-01
  4.03798015E-01 -2.52924114E-01  3.28518447E-02  1.08125476E+00  1.00000000E+00
  1.00000000E+00  1.81961690E-03  1.39160796E-02  6.84053245E-02  2.33185760E-01
  4.71267439E-01  3.56618546E-01 -1.08506975E-01 -1.46451658E-01  1.12868858E+00
  1.00000000E+00  1.00000000E+00  1.95948022E-03  1.49288016E-02  7.28478080E-02
  2.46130027E-01  4.85914053E-01  3.25002036E-01 -2.78094141E-03 -3.57146182E-02
 -1.14985058E-01  9.35634476E-02  6.03017307E-01  4.18959213E-01 -2.44631004E-01
  4.31573772E-03  1.09818451E+00  1.00000000E+00  1.00000000E+00  3.34946043E-02
  2.34726953E-01  8.13757326E-01  1.00000000E+00  3.34946043E-02  2.34726953E-01
  8.13757326E-01  1.00000000E+00  3.34946043E-02  2.34726953E-01  8.13757326E-01
  1.00000000E+00  1.81961690E-03  1.39160796E-02  6.84053245E-02  2.33185760E-01
  4.71267439E-01  3.56618546E-01 -1.08506975E-01 -1.46451658E-01  1.12868858E+00
  1.00000000E+00  1.00000000E+00  1.81961690E-03  1.39160796E-02  6.84053245E-02
  2.33185760E-01  4.71267439E-01  3.56618546E-01 -1.08506975E-01 -1.46451658E-01
  1.12868858E+00  1.00000000E+00  1.00000000E+00
P(S=P) Contraction coefficients            R   N=         118
  0.00000000E+00  0.00000000E+00  0.00000000E+00  0.00000000E+00  0.00000000E+00
  0.00000000E+00  7.16287242E-02  3.45912103E-01  7.22469956E-01  1.00000000E+00
  0.00000000E+00  0.00000000E+00  0.00000000E+00  0.00000000E+00  0.00000000E+00
  0.00000000E+00  0.00000000E+00  4.56461619E-03  3.36935719E-02  1.39754883E-01
  3.39361717E-01  4.50920624E-01  2.38585801E-01 -1.77653127E-02  2.74058196E-01
  7.85421563E-01  1.00000000E+00  0.00000000E+00  0.00000000E+00  0.00000000E+00
  0.00000000E+00  0.00000000E+00  0.00000000E+00  0.00000000E+00  6.75797439E-02
  3.23907296E-01  7.40895140E-01  1.00000000E+00  0.00000000E+00  0.00000000E+00
  0.00000000E+00  0.00000000E+00  0.00000000E+00  0.00000000E+00  0.00000000E+00
  4.56461619E-03  3.36935719E-02  1.39754883E-01  3.39361717E-01  4.50920624E-01
  2.38585801E-01 -1.77653127E-02  2.74058196E-01  7.85421563E-01  1.00000000E+00
  0.00000000E+00  0.00000000E+00  0.00000000E+00  0.00000000E+00  0.00000000E+00
  0.00000000E+00  0.00000000E+00  7.16287242E-02  3.45912103E-01  7.22469956E-01
  1.00000000E+00  0.00000000E+00  0.00000000E+00  0.00000000E+00  0.00000000E+00
  0.00000000E+00  0.00000000E+00  0.00000000E+00  4.43826452E-03  3.26679333E-02
  1.34721137E-01  3.28678335E-01  4.49640458E-01  2.61372266E-01 -1.77951061E-02
  2.53539086E-01  8.00669272E-01  1.00000000E+00  0.00000000E+00  0.00000000E+00
  0.00000000E+00  0.00000000E+00  0.00000000E+00  0.00000000E+00  0.00000000E+00
  0.00000000E+00  0.00000000E+00  0.00000000E+00  0.00000000E+00  0.00000000E+00
  0.00000000E+00  0.00000000E+00  0.00000000E+00  0.00000000E+00  0.00000000E+00
  0.00000000E+00  0.00000000E+00  7.16287242E-02  3.45912103E-01  7.22469956E-01
  1.00000000E+00  0.00000000E+00  0.00000000E+00  0.00000000E+00  0.00000000E+00
  0.00000000E+00  0.00000000E+00  0.00000000E+00  7.16287242E-02  3.45912103E-01
  7.22469956E-01  1.00000000E+00  0.00000000E+00
Coordinates of each shell                  R   N=         123
 -4.04571963E+00 -1.12426861E+00  2.14849218E+00 -4.04571963E+00 -1.12426861E+00
  2.14849218E+00 -4.04571963E+00 -1.12426861E+00  2.14849218E+00 -4.04571963E+00
 -1.12426861E+00  2.14849218E+00 -2.71489747E+00 -1.61280355E+00 -4.76729393E-01
 -2.71489747E+00 -1.61280355E+00 -4.76729393E-01 -2.71489747E+00 -1.61280355E+00
 -4.76729393E-01 -2.71489747E+00 -1.61280355E+00 -4.76729393E-01 -2.71489747E+00
 -1.61280355E+00 -4.76729393E-01 -3.87094057E-18  2.23167658E-02 -5.93143804E-02
 -3.87094057E-18  2.23167658E-02 -5.93143804E-02 -3.87094057E-18  2.23167658E-02
 -5.93143804E-02 -3.87094057E-18  2.23167658E-02 -5.93143804E-02  2.71489747E+00
 -1.61280365E+00 -4.76729095E-01  2.71489747E+00 -1.61280365E+00 -4.76729095E-01
  2.71489747E+00 -1.61280365E+00 -4.76729095E-01  2.71489747E+00 -1.61280365E+00
 -4.76729095E-01  2.71489747E+00 -1.61280365E+00 -4.76729095E-01 -4.25499694E+00
  4.85865750E-01 -1.95333422E+00 -4.25499694E+00  4.85865750E-01 -1.95333422E+00
 -4.25499694E+00  4.85865750E-01 -1.95333422E+00 -4.25499694E+00  4.85865750E-01
 -1.95333422E+00 -9.15175054E-16  3.36365946E+00  6.26782056E-01 -9.15175054E-16
  3.36365946E+00  6.26782056E-01 -9.15175054E-16  3.36365946E+00  6.26782056E-01
 -9.15175054E-16  3.36365946E+00  6.26782056E-01 -9.15175054E-16  3.36365946E+00
  6.26782056E-01  2.68331381E-06  4.79187010E+00 -1.74982832E+00  2.68331381E-06
  4.79187010E+00 -1.74982832E+00 -2.28173974E+00  3.91801960E+00  2.08955669E+00
 -2.28173974E+00  3.91801960E+00  2.08955669E+00  2.28173721E+00  3.91801860E+00
  2.08956099E+00  2.28173721E+00  3.91801860E+00  2.08956099E+00  4.25499686E+00
  4.85865113E-01 -1.95333470E+00  4.25499686E+00  4.85865113E-01 -1.95333470E+00
  4.25499686E+00  4.85865113E-01 -1.95333470E+00  4.25499686E+00  4.85865113E-01
 -1.95333470E+00  4.04571970E+00 -1.12426781E+00  2.14849228E+00  4.04571970E+00
 -1.12426781E+00  2.14849228E+00  4.04571970E+00 -1.12426781E+00  2.14849228E+00
  4.04571970E+00 -1.12426781E+00  2.14849228E+00
Alpha Orbital Energies                     R   N=         138
 -8.01034085E+01 -8.01034026E+01 -6.88057293E+01 -2.63330074E+01 -2.63330070E+01
 -2.63280317E+01 -2.63280314E+01 -1.56013012E+01 -7.63248285E+00 -7.63248068E+00
 -6.16220465E+00 -5.52672941E+00 -5.52672595E+00 -5.52626623E+00 -5.52624788E+00
 -5.52354302E+00 -5.52352496E+00 -4.26878071E+00 -4.26823024E+00 -4.26778365E+00
 -1.65717712E+00 -1.65610473E+00 -1.61614607E+00 -1.61596745E+00 -1.21902835E+00
 -9.15614419E-01 -8.62292065E-01 -7.79473319E-01 -7.59792768E-01 -7.59646307E-01
 -7.51863442E-01 -7.31869534E-01 -7.18624146E-01 -7.06585693E-01 -6.89913816E-01
 -6.83117859E-01 -6.53204464E-01 -6.52031855E-01 -6.23731972E-01 -6.22430939E-01
 -5.30929459E-01 -5.05015009E-01 -4.63352866E-01 -4.29567405E-01 -4.28085069E-01
  1.22066982E-01  1.30669887E-01  1.51724902E-01  1.57805923E-01  1.72279702E-01
  2.00085653E-01  2.37868774E-01  2.73861481E-01  2.93378629E-01  3.50184723E-01
  3.61582394E-01  3.64530549E-01  3.87343526E-01  3.90188485E-01  4.73967107E-01
  4.86359384E-01  5.06668795E-01  5.11909950E-01  5.21905935E-01  5.41953987E-01
  5.68320190E-01  5.94294494E-01  7.62653943E-01  8.06049071E-01  8.07317417E-01
  8.13915176E-01  8.39285000E-01  8.73488409E-01  8.74610536E-01  8.84930207E-01
  8.87343530E-01  9.26001113E-01  1.02841738E+00  1.14613835E+00  1.15460957E+00
  1.20595083E+00  1.23084801E+00  1.23425640E+00  1.28715805E+00  1.35296070E+00
  1.39091111E+00  1.41749778E+00  1.43185998E+00  1.47154655E+00  1.47716806E+00
  1.49226230E+00  1.50058691E+00  1.53377365E+00  1.58666636E+00  1.60671663E+00
  1.63403031E+00  1.63887824E+00  1.64789613E+00  1.68684249E+00  1.71816254E+00
  1.74823146E+00  1.81069546E+00  1.84878269E+00  2.03356551E+00  2.04114787E+00
  2.08573530E+00  2.08708160E+00  2.10063999E+00  2.10423712E+00  2.11220787E+00
  2.11801960E+00  2.12137806E+00  2.12817756E+00  2.16912425E+00  2.22968813E+00
  2.23974953E+00  2.24006608E+00  2.25650240E+00  2.31092181E+00  2.32250999E+00
  2.37054766E+00  2.37248889E+00  2.38909166E+00  2.56828251E+00  2.65651872E+00
  2.70443206E+00  3.09235952E+00  3.17490109E+00  3.24026183E+00  3.26102882E+00
  3.28698853E+00  3.86187798E+00  3.87415425E+00  4.19348349E+00  4.27843425E+00
  4.42850531E+00  4.96330086E+00  5.24261628E+00
Alpha MO coefficients                      R   N=       19044
 -1.61608102E-05 -5.44771985E-05  1.20147776E-05 -9.43125019E-06 -5.76901620E-05
  1.30403045E-05 -9.00545763E-06  1.65367480E-05  1.59759718E-04 -4.58361498E-05
 -6.91884403E-05  1.84848079E-05 -1.45027934E-05 -6.52798499E-05  2.66085991E-05
 -7.04502834E-01 -9.52216520E-03  2.17927740E-06 -1.07386664E-04 -4.01733253E-05
  1.55037575E-02  6.68400278E-05  1.55501803E-04  5.10887297E-05 -2.54454306E-03
 -4.21692919E-04 -5.41608649E-06 -1.16704294E-06 -5.30088374E-03 -5.26298411E-03
 -5.28615979E-03 -1.42330707E-05 -7.30071039E-06  6.76877413E-06 -3.16246709E-09
 -8.92127893E-09 -3.40675289E-05  2.81251400E-09  7.51167075E-10  1.36459058E-07
  3.27279553E-04 -2.63436464E-08 -7.72866297E-09 -1.87088239E-08 -1.18053410E-08
 -1.36244086E-08  1.27639611E-04  3.25283147E-05  2.69979531E-10  7.04666169E-01
  9.52437486E-03  2.17989870E-06  1.07413918E-04  4.01831474E-05 -1.55073017E-02
  6.68651816E-05 -1.55556052E-04 -5.11041323E-05  2.54497254E-03 -4.21691100E-04
  5.42219485E-06  1.16547618E-06  5.30208810E-03  5.26420263E-03  5.28737026E-03
 -1.42340195E-05 -7.30174275E-06 -6.76402730E-06 -1.09460630E-05 -3.00820982E-05
  1.46311748E-05 -4.08336359E-05  3.49417881E-05 -7.25510791E-05 -2.21468869E-05
  1.12453248E-04 -1.07717416E-04 -1.19307904E-05  7.58316230E-06 -2.99674493E-05
 -6.09264687E-05  3.76874492E-05 -4.65493569E-05  6.71307459E-10  1.69845206E-09
  8.63308007E-06  4.80456513E-10 -7.80793910E-11  3.86017403E-08 -7.54115338E-05
  2.64972838E-09  1.26050897E-09 -9.28453747E-08 -2.21325460E-04  3.16429718E-08
  1.30419714E-08 -2.35599667E-09 -1.32918515E-08 -7.00387705E-09  8.41524148E-05
  1.64728919E-06 -1.29987291E-09 -1.81819865E-10  1.94410792E-08 -3.51886982E-06
 -5.46187173E-05  3.51537319E-06  5.46441758E-05  1.09441983E-05  3.00649781E-05
  1.46408963E-05  4.08414434E-05 -3.49508946E-05  7.26454964E-05 -2.21800971E-05
 -1.12476987E-04  1.07748113E-04  1.19176319E-05 -7.60179600E-06  2.99561512E-05
 -6.09388982E-05  3.76929121E-05  4.65608672E-05  1.61618830E-05  5.44737952E-05
  1.20212382E-05  9.43203414E-06  5.77033169E-05 -1.29897327E-05 -9.02747207E-06
 -1.65367911E-05 -1.59800679E-04  4.58361161E-05  6.91963436E-05 -1.84992657E-05
 -1.45070774E-05 -6.52915415E-05 -2.66144595E-05  4.59660973E-06 -1.48511008E-05
 -2.78950478E-05  3.30136079E-06  5.67849359E-05  2.18738695E-04  9.50426531E-05
  6.71266995E-08 -1.76819129E-04 -2.29457790E-07  3.40106393E-05 -6.25896392E-05
  1.83809501E-05  5.04579515E-05 -2.51411336E-05  7.04670469E-01  9.53309345E-03
 -2.66196879E-06  1.17527154E-04  4.25291373E-05 -1.52903456E-02 -1.08579117E-04
 -2.33986850E-04 -6.66871898E-05  1.85225870E-03 -7.77048735E-06  2.58561820E-05
 -6.63362012E-06  5.19596175E-03  5.25703412E-03  5.22232351E-03  4.07434108E-06
  4.49033745E-06  2.04759197E-05 -2.73345876E-05 -7.71483668E-05  3.95141137E-09
  2.42695356E-05  6.48557771E-06  1.17844735E-03 -3.79523460E-08 -2.27247563E-04
 -6.67616224E-05 -1.61512356E-04 -1.01933626E-04 -1.17706763E-04 -1.47917611E-08
 -3.77741599E-09  2.27382852E-06  7.04507136E-01  9.53088580E-03  2.66146717E-06
  1.17502271E-04  4.25197881E-05 -1.52867512E-02  1.08563608E-04 -2.33950820E-04
 -6.66752910E-05  1.85166893E-03  7.86826449E-06  2.58550068E-05 -6.63383801E-06
  5.19473278E-03  5.25581395E-03  5.22109794E-03 -4.07104251E-06 -4.48864047E-06
  2.04774795E-05 -8.10071769E-06 -7.41422421E-05 -4.19265635E-05  3.37282040E-05
 -3.91978566E-05  4.08378042E-04  1.43309627E-04 -1.02624984E-04  1.32252614E-04
 -5.70048719E-05 -8.07116695E-05 -4.88243646E-05  5.36944666E-05 -2.34813690E-05
  4.95754217E-05  5.78866203E-06  1.46452451E-05 -9.97780042E-10  4.13975265E-06
 -6.78790232E-07  3.32815012E-04  8.72648545E-09  2.29463307E-05  1.09166503E-05
 -8.01517266E-04  2.55370094E-08  2.72745594E-04  1.12337446E-04 -2.05903391E-05
 -1.14617769E-04 -6.00844271E-05 -9.76774733E-09 -1.88311729E-10 -1.13433600E-05
 -1.67872492E-06  1.67396622E-04 -1.52247599E-05  1.10621475E-04 -1.52255493E-05
  1.10608902E-04 -8.10324273E-06 -7.41491574E-05  4.19231607E-05  3.37187225E-05
 -3.91897788E-05  4.08361016E-04 -1.43304451E-04 -1.02598852E-04  1.32227696E-04
 -5.70075947E-05 -8.07098265E-05 -4.88312874E-05 -5.36803289E-05  2.34726454E-05
  4.95646543E-05  4.59286247E-06 -1.48637294E-05  2.78922712E-05  3.29918999E-06
  5.67715587E-05  2.18741698E-04 -9.50405916E-05  7.09097814E-08 -1.76782083E-04
 -2.40088962E-07  3.39945782E-05 -6.25853400E-05 -1.83776057E-05 -5.04428080E-05
 -2.51350015E-05  1.43938919E-05  6.99939494E-05  1.46398123E-05  1.64277580E-05
  1.17950761E-05 -1.88904147E-04 -5.47764495E-05 -6.84438873E-05 -4.84293651E-05
  5.57327057E-05  5.30057745E-05  7.39789179E-05 -1.41545169E-05 -3.04687216E-06
 -4.29316256E-06  4.60938749E-06  5.36899322E-06 -1.44746251E-05  7.43113054E-06
 -9.15878626E-07  1.94869870E-04  7.29369760E-05 -8.95919021E-05  1.14048804E-05
 -5.20827768E-04 -5.41270691E-05 -2.71202688E-04 -4.33447191E-05 -3.86937239E-06
 -8.21909712E-05 -5.21681803E-05 -1.24665415E-05 -1.06087261E-05  2.12183276E-05
 -3.14148173E-05 -6.60534715E-05  1.80796334E-12 -8.31818245E-05 -2.74311469E-05
  9.59444006E-04 -8.34308577E-11  6.02719961E-04  1.45308533E-04 -6.21825815E-05
 -1.80694371E-04 -1.23926439E-04 -2.57116454E-12  4.80326102E-12 -8.54975379E-06
  4.60938766E-06  5.36899045E-06  1.44746259E-05  7.43112397E-06 -9.15874936E-07
  1.94869869E-04 -7.29369751E-05 -8.95918341E-05  1.14048399E-05 -5.20827615E-04
  5.41270437E-05 -2.71202595E-04 -4.33447356E-05 -3.86937316E-06 -8.21909230E-05
 -5.21682215E-05  1.24665497E-05  1.06087247E-05  2.12182986E-05 -6.77767109E-06
 -3.77070828E-05 -8.39165023E-06  1.99842760E-05 -2.35387648E-05  1.25380386E-04
  9.31778193E-06 -1.22976962E-04  6.93271752E-05 -2.74614580E-05 -3.08400551E-05
 -2.36767393E-05 -9.20587066E-06  2.76087718E-05 -5.68138617E-06  9.96772813E-01
  1.22051246E-02  6.03499467E-13 -9.57533783E-05 -2.04789273E-05 -2.21643164E-02
 -3.34891100E-13  5.39272987E-04  1.00670190E-04  4.03665925E-03  3.73182412E-10
 -4.10161673E-04 -1.95851887E-04  7.45818031E-03  7.31805096E-03  7.43994174E-03
  1.53758241E-11  1.29850395E-11 -3.05789705E-05  1.57402283E-04 -1.22753735E-04
  1.04837114E-04  7.22858565E-05  1.04837228E-04  7.22853639E-05 -6.77761894E-06
 -3.77068080E-05  8.39161143E-06  1.99842853E-05 -2.35387460E-05  1.25379531E-04
 -9.31764780E-06 -1.22976959E-04  6.93271086E-05 -2.74612627E-05 -3.08398540E-05
 -2.36765043E-05  9.20588348E-06 -2.76087373E-05 -5.68139414E-06  1.43938920E-05
  6.99939546E-05 -1.46398049E-05  1.64277612E-05  1.17950912E-05 -1.88904192E-04
  5.47764432E-05 -6.84439439E-05 -4.84294081E-05  5.57326980E-05  5.30057677E-05
  7.39789209E-05  1.41545092E-05  3.04688924E-06 -4.29316048E-06  8.19122922E-04
  9.28427804E-05  9.06748678E-07  8.13128156E-06 -2.12243132E-06 -3.10816398E-04
 -2.90475863E-05 -9.87404575E-06  7.77717369E-06  4.22081064E-05  5.97304473E-05
  1.01406422E-04 -4.37000548E-07  1.93328272E-05 -3.58125700E-05 -7.30022080E-06
  2.89137597E-05 -4.49417671E-05  5.34215121E-05 -4.25853550E-05 -6.57584003E-05
  2.42784070E-04 -2.87796225E-04  2.38944927E-04  4.08301827E-04 -1.52013485E-04
  3.19273703E-04 -1.29786304E-04 -7.37801052E-05 -1.76255390E-04 -5.85041096E-05
  1.88324788E-04 -1.12549645E-04  1.59487251E-04 -8.36618112E-08 -1.91955253E-07
 -3.64051999E-06 -7.56267909E-08  5.50433609E-08  2.20291156E-06  1.44020004E-04
 -9.42425380E-08 -2.84952704E-09 -3.21998147E-07 -4.96032310E-08 -2.32202057E-07
 -4.85942418E-05  4.55339594E-05  3.85276078E-08  7.36990553E-06 -2.92337791E-05
 -4.53749849E-05 -5.39254077E-05  4.29556073E-05  6.62624562E-05  2.45241604E-04
  2.90476147E-04 -2.41038636E-04 -4.11780064E-04 -1.53234520E-04 -3.21255459E-04
  1.30202170E-04  7.44240796E-05  1.78039374E-04  5.89698525E-05  1.90077459E-04
 -1.13696024E-04 -1.61020403E-04 -6.99745508E-01 -1.22781731E-02 -2.97896679E-04
  3.90368575E-04 -2.83287321E-04 -6.53478452E-03  1.85801364E-04 -2.95774994E-04
  1.70692649E-04  3.48420902E-03  3.54527987E-03  3.47592810E-03 -1.20278071E-04
  8.14476203E-05 -1.18934120E-04  9.16039997E-09  8.89151739E-08 -6.36811151E-06
 -3.47074293E-09  1.71644319E-08  5.64409055E-07  4.97274708E-05 -4.50897443E-08
 -1.59970708E-07 -2.15000846E-06 -2.64664858E-04  1.26863437E-07  9.16754083E-07
  1.37689439E-07 -6.60648929E-08  3.77881593E-08 -6.01593155E-06 -1.87690354E-05
 -2.48020171E-08 -1.67440997E-07  1.20137822E-06  2.69834383E-05 -1.78236496E-04
 -2.70181729E-05  1.78970523E-04  7.06463372E-01  1.23966452E-02 -3.00737700E-04
 -3.94153006E-04  2.86016749E-04  6.59541422E-03  1.87563246E-04  2.98762071E-04
 -1.72401371E-04 -3.51718035E-03 -3.57884942E-03 -3.50886312E-03 -1.21441469E-04
  8.22226249E-05  1.20046063E-04 -8.27330145E-04 -9.37614064E-05  9.23405744E-07
 -8.13721426E-06  2.13529297E-06  3.13875548E-04 -2.93645966E-05  9.68106668E-06
 -7.80046241E-06 -4.26418009E-05 -6.03034167E-05 -1.02399848E-04 -4.24810785E-07
  1.95228118E-05  3.61753409E-05 -8.62975308E-04 -9.65922556E-05 -1.74757111E-06
 -6.59313103E-07  1.35612623E-06  3.21671106E-04  3.33179748E-05 -2.01527250E-05
 -2.47473842E-06 -4.55937576E-05 -6.02569903E-05 -1.04459399E-04 -1.27304859E-06
 -1.99771146E-05  3.81425306E-05  7.32841075E-06 -3.36324442E-05  4.55585561E-05
 -5.29974540E-05  3.89536920E-05  5.30673436E-05 -2.58383283E-04  2.81877762E-04
 -2.20266119E-04 -3.66016015E-04  1.28526725E-04 -2.08956626E-04  4.41320610E-05
  6.77572235E-05  1.87576427E-04  4.90189331E-05 -1.84349717E-04  1.20518865E-04
 -1.61224408E-04 -1.75140898E-05 -4.01849180E-05  1.73999353E-08 -1.58312715E-05
  1.15243453E-05  4.61152336E-04 -6.88047660E-07 -1.97271825E-05 -6.10068588E-07
 -6.74077881E-05 -1.03862390E-05 -4.86096898E-05  2.32155540E-07 -2.17519545E-07
  8.06519075E-06  7.25832923E-06 -3.33546664E-05 -4.51270888E-05 -5.24846227E-05
  3.85450668E-05  5.24366779E-05  2.56051860E-04  2.79115182E-04 -2.17973267E-04
 -3.62098213E-04 -1.27068425E-04 -2.05896587E-04  4.28902247E-05  6.70492026E-05
  1.85883793E-04  4.84578385E-05  1.82541960E-04 -1.19438109E-04 -1.59693337E-04
  7.06475338E-01  1.24586542E-02  2.98783425E-04 -3.97976260E-04  2.87014889E-04
  6.37711056E-03 -1.85294675E-04  3.14064448E-04 -1.79650564E-04 -3.46762799E-03
 -3.53053975E-03 -3.46378083E-03  1.22346453E-04 -8.15018507E-05  1.16946807E-04
  1.91747292E-06  1.86125312E-05  3.04160158E-08 -7.27428849E-07  3.59309907E-06
  1.18150283E-04 -2.37549249E-07 -9.43396492E-06 -3.34820834E-05 -4.50049293E-04
  1.26421541E-06  2.65350032E-05  1.91966520E-04  2.88065225E-05 -1.38315220E-05
  7.91882527E-06  2.87177628E-08  8.96888892E-08 -5.19416272E-06 -3.50683977E-05
  2.51518485E-04 -3.75285272E-06  7.76564241E-05 -3.49496489E-06  7.59500968E-05
  6.99757589E-01  1.23407775E-02 -2.95923605E-04 -3.94228346E-04  2.84295376E-04
  6.31438480E-03  1.83511036E-04  3.11224176E-04 -1.78011657E-04 -3.43418090E-03
 -3.49650623E-03 -3.43041310E-03 -1.21191675E-04  8.07200042E-05  1.15805188E-04
 -8.55109502E-04 -9.57007438E-05  1.73882948E-06 -5.81598635E-07  1.33578507E-06
  3.18686616E-04 -3.30389296E-05 -2.02461327E-05 -2.40030032E-06 -4.51883702E-05
 -5.96834964E-05 -1.03485755E-04  1.27717390E-06  1.97914934E-05  3.77986113E-05
 -7.01667146E-01 -1.22985542E-02 -2.55037685E-04  8.62193274E-05  4.99030782E-04
 -6.60995888E-03  1.57701417E-04 -8.33686809E-05 -3.25071096E-04  3.48207238E-03
  3.42586736E-03  3.64919814E-03 -2.47414886E-05 -1.29420837E-04  4.94180277E-05
 -8.47311156E-06  1.99833990E-05 -3.76366709E-05  8.87753161E-06  7.14302998E-05
 -1.33144950E-04  2.01577678E-04 -4.11340408E-05 -4.01151127E-04  6.33494120E-04
 -8.23601878E-05  2.32588687E-04  3.68569527E-04 -4.52897260E-05  1.92551446E-05
 -2.82650368E-04  5.11297531E-05  1.90917058E-04 -8.06765723E-05 -2.07299852E-08
 -5.89764235E-08  2.78832707E-06  5.90867301E-09 -2.88030913E-08  7.51752830E-07
  1.81709828E-04 -2.12608461E-07 -6.91141591E-08 -3.47043426E-08 -1.18543913E-08
 -6.63245225E-08 -1.22280471E-05 -5.80513241E-05  3.35577969E-08  8.50830283E-06
 -2.01057332E-05 -3.77969684E-05 -8.92210851E-06 -7.17114429E-05  1.33648028E-04