 Entering Gaussian System, Link 0=g98

 ****************************************************
 Gaussian 98:  Sun64-SVR4-Unix-G98RevA.11 25-Sep-2001
                     25-Oct-2002 
 ****************************************************
 %Chk=Si-CB-mp2-6311-2plus-df-pd-A2_free_FREQ-volodya-final
 %mem=700MB
 --------------------------------------------------
 # mp2/6-311++G(df,pd) fopt Pop=NPA Freq scf=direct
 --------------------------------------------------
 1/18=20,38=1/1,3;
 2/9=110,14=103,17=6,18=5,40=1/2;
 3/5=4,6=6,7=1313,11=9,25=1,30=1/1,2,3;
 4//1;
 5/5=2,38=4/2;
 8/6=4,10=1,23=2/1;
 9/15=2,16=-3/6;
 10/5=1/2;
 6/7=2,8=2,9=2,10=2,40=-1/1,7;
 7/12=2/1,2,3,16;
 1/18=20/3(1);
 99//99;
 2/9=110/2;
 3/5=4,6=6,7=1313,11=9,25=1,30=1/1,2,3;
 4/5=5,16=2/1;
 5/5=2,38=4/2;
 8/6=4,10=1,23=2/1;
 9/15=2,16=-3/6;
 10/5=1/2;
 7/12=2/1,2,3,16;
 1/18=20/3(-8);
 2/9=110/2;
 6/7=2,8=2,9=2,10=2,40=-1/1,7;
 99//99;
 -----------------------------------------------------
 Si-CB mp2/6-311++G(df,pd) A2=free NPA FREQ 18.10.2002
 -----------------------------------------------------
 Symbolic Z-matrix:
 Charge =  0 Multiplicity = 1
 H1
 Si2                  H1   R1
 X3                   Si2  R2       H1   A1
 C4                   X3   R3       Si2  A2       H1    0.       0
 H5                   Si2  R4       X3   A3       C4    180.     0
 C6                   X3   R5       Si2   90.      H1    90.      0
 C7                   X3   R5       Si2   90.      H1   -90.      0
 H8                   C4   R6       X3   A4       Si2   0.       0
 H9                   C4   R7       X3   A5       Si2   180.     0
 H10                  C6   R8       Si2  A6       C4   b1       1
 H11                  C6   R9       Si2  A7       C4   b2       -1
 H12                  C7   R8       Si2  A6       C4   b1       -1
 H13                  C7   R9       Si2  A7       C4   b2       1
       Variables:
  R1                    1.4809                   
  R2                    1.46333                  
  R3                    1.00354                  
  R4                    1.4814                   
  R5                    1.19207                  
  R6                    1.0941                   
  R7                    1.0929                   
  R8                    1.0936                   
  R9                    1.0893                   
  A1                  119.3                      
  A2                  145.053                    
  A3                  132.384                    
  A4                  121.3                      
  A5                  130.83                     
  A6                  110.84                     
  A7                  122.22                     
  B1                  109.83                     
  B2                  118.77                     

 GradGradGradGradGradGradGradGradGradGradGradGradGradGradGradGradGradGrad
 Berny optimization.
 Initialization pass.
                         ----------------------------
                         !    Initial Parameters    !
                         ! (Angstroms and Degrees)  !
 ------------------------                            -------------------------
 ! Name  Definition              Value          Derivative Info.             !
 -----------------------------------------------------------------------------
 ! R1    R(1,2)                  1.4809         estimate D2E/DX2             !
 ! R2    R(2,4)                  1.4814         estimate D2E/DX2             !
 ! R3    R(2,5)                  1.8874         estimate D2E/DX2             !
 ! R4    R(2,6)                  1.8874         estimate D2E/DX2             !
 ! R5    R(3,5)                  1.5582         estimate D2E/DX2             !
 ! R6    R(3,6)                  1.5582         estimate D2E/DX2             !
 ! R7    R(3,7)                  1.0941         estimate D2E/DX2             !
 ! R8    R(3,8)                  1.0929         estimate D2E/DX2             !
 ! R9    R(5,9)                  1.0936         estimate D2E/DX2             !
 ! R10   R(5,10)                 1.0893         estimate D2E/DX2             !
 ! R11   R(6,11)                 1.0936         estimate D2E/DX2             !
 ! R12   R(6,12)                 1.0893         estimate D2E/DX2             !
 ! A1    A(1,2,4)              108.316          estimate D2E/DX2             !
 ! A2    A(1,2,5)              112.2978         estimate D2E/DX2             !
 ! A3    A(1,2,6)              112.2978         estimate D2E/DX2             !
 ! A4    A(4,2,5)              121.5089         estimate D2E/DX2             !
 ! A5    A(4,2,6)              121.5089         estimate D2E/DX2             !
 ! A6    A(5,2,6)               78.3345         estimate D2E/DX2             !
 ! A7    A(5,3,6)               99.8155         estimate D2E/DX2             !
 ! A8    A(5,3,7)              109.547          estimate D2E/DX2             !
 ! A9    A(5,3,8)              114.9022         estimate D2E/DX2             !
 ! A10   A(6,3,7)              109.547          estimate D2E/DX2             !
 ! A11   A(6,3,8)              114.9022         estimate D2E/DX2             !
 ! A12   A(7,3,8)              107.87           estimate D2E/DX2             !
 ! A13   A(2,5,3)               85.7625         estimate D2E/DX2             !
 ! A14   A(2,5,9)              110.84           estimate D2E/DX2             !
 ! A15   A(2,5,10)             122.22           estimate D2E/DX2             !
 ! A16   A(3,5,9)              109.83           estimate D2E/DX2             !
 ! A17   A(3,5,10)             118.77           estimate D2E/DX2             !
 ! A18   A(9,5,10)             107.8004         estimate D2E/DX2             !
 ! A19   A(2,6,3)               85.7625         estimate D2E/DX2             !
 ! A20   A(2,6,11)             110.84           estimate D2E/DX2             !
 ! A21   A(2,6,12)             122.22           estimate D2E/DX2             !
 ! A22   A(3,6,11)             109.83           estimate D2E/DX2             !
 ! A23   A(3,6,12)             118.77           estimate D2E/DX2             !
 ! A24   A(11,6,12)            107.8004         estimate D2E/DX2             !
 ! D1    D(1,2,5,3)            -87.8053         estimate D2E/DX2             !
 ! D2    D(1,2,5,9)            162.5755         estimate D2E/DX2             !
 ! D3    D(1,2,5,10)            33.7799         estimate D2E/DX2             !
 ! D4    D(4,2,5,3)            141.6694         estimate D2E/DX2             !
 ! D5    D(4,2,5,9)             32.0502         estimate D2E/DX2             !
 ! D6    D(4,2,5,10)           -96.7454         estimate D2E/DX2             !
 ! D7    D(6,2,5,3)             21.7105         estimate D2E/DX2             !
 ! D8    D(6,2,5,9)            -87.9087         estimate D2E/DX2             !
 ! D9    D(6,2,5,10)           143.2957         estimate D2E/DX2             !
 ! D10   D(1,2,6,3)             87.8053         estimate D2E/DX2             !
 ! D11   D(1,2,6,11)          -162.5755         estimate D2E/DX2             !
 ! D12   D(1,2,6,12)           -33.7799         estimate D2E/DX2             !
 ! D13   D(4,2,6,3)           -141.6694         estimate D2E/DX2             !
 ! D14   D(4,2,6,11)           -32.0502         estimate D2E/DX2             !
 ! D15   D(4,2,6,12)            96.7454         estimate D2E/DX2             !
 ! D16   D(5,2,6,3)            -21.7105         estimate D2E/DX2             !
 ! D17   D(5,2,6,11)            87.9087         estimate D2E/DX2             !
 ! D18   D(5,2,6,12)          -143.2957         estimate D2E/DX2             !
 ! D19   D(6,3,5,2)            -26.4443         estimate D2E/DX2             !
 ! D20   D(6,3,5,9)             84.1962         estimate D2E/DX2             !
 ! D21   D(6,3,5,10)          -151.1415         estimate D2E/DX2             !
 ! D22   D(7,3,5,2)             88.5004         estimate D2E/DX2             !
 ! D23   D(7,3,5,9)           -160.8592         estimate D2E/DX2             !
 ! D24   D(7,3,5,10)           -36.1968         estimate D2E/DX2             !
 ! D25   D(8,3,5,2)           -149.9104         estimate D2E/DX2             !
 ! D26   D(8,3,5,9)            -39.27           estimate D2E/DX2             !
 ! D27   D(8,3,5,10)            85.3923         estimate D2E/DX2             !
 ! D28   D(5,3,6,2)             26.4443         estimate D2E/DX2             !
 ! D29   D(5,3,6,11)           -84.1962         estimate D2E/DX2             !
 ! D30   D(5,3,6,12)           151.1415         estimate D2E/DX2             !
 ! D31   D(7,3,6,2)            -88.5004         estimate D2E/DX2             !
 ! D32   D(7,3,6,11)           160.8592         estimate D2E/DX2             !
 ! D33   D(7,3,6,12)            36.1968         estimate D2E/DX2             !
 ! D34   D(8,3,6,2)            149.9104         estimate D2E/DX2             !
 ! D35   D(8,3,6,11)            39.27           estimate D2E/DX2             !
 ! D36   D(8,3,6,12)           -85.3923         estimate D2E/DX2             !
 -----------------------------------------------------------------------------
 Trust Radius=3.00D-01 FncErr=1.00D-07 GrdErr=1.00D-07
 Number of steps in this run=  82 maximum allowed number of steps= 100.
 GradGradGradGradGradGradGradGradGradGradGradGradGradGradGradGradGradGrad

                          Input orientation:                          
 ---------------------------------------------------------------------
 Center     Atomic     Atomic              Coordinates (Angstroms)
 Number     Number      Type              X           Y           Z
 ---------------------------------------------------------------------
    1          1             0        0.000000    0.000000    0.000000
    2         14             0        0.000000    0.000000    1.480900
    3          6             0        2.274795    0.000000    2.098280
    4          1             0       -1.406349    0.000000    1.946441
    5          6             0        1.276125    1.192070    2.197028
    6          6             0        1.276125   -1.192070    2.197028
    7          1             0        2.748452    0.000000    1.112023
    8          1             0        3.067255    0.000000    2.850901
    9          1             0        1.059876    1.408877    3.246881
   10          1             0        1.531414    2.131712    1.708688
   11          1             0        1.059876   -1.408877    3.246881
   12          1             0        1.531414   -2.131712    1.708688
 ---------------------------------------------------------------------
                    Distance matrix (angstroms):
                    1          2          3          4          5
     1  H    0.000000
     2  Si   1.480900   0.000000
     3  C    3.094749   2.357085   0.000000
     4  H    2.401343   1.481400   3.684274   0.000000
     5  C    2.806503   1.887423   1.558244   2.946098   0.000000
     6  C    2.806503   1.887423   1.558244   2.946098   2.384140
     7  H    2.964892   2.773096   1.094100   4.237762   2.183120
     8  H    4.187564   3.359309   1.092900   4.564118   2.248716
     9  H    3.694660   2.495388   2.186378   3.123835   1.093600
    10  H    3.131938   2.634637   2.290981   3.637468   1.089300
    11  H    3.694660   2.495388   2.186378   3.123835   2.813162
    12  H    3.131938   2.634637   2.290981   3.637468   3.369150
                    6          7          8          9         10
     6  C    0.000000
     7  H    2.183120   0.000000
     8  H    2.248716   1.767861   0.000000
     9  H    2.813162   3.064938   2.484211   0.000000
    10  H    3.369150   2.526141   2.864900   1.763767   0.000000
    11  H    1.093600   3.064938   2.484211   2.817754   3.888979
    12  H    1.089300   2.526141   2.864900   3.888979   4.263423
                   11         12
    11  H    0.000000
    12  H    1.763767   0.000000
 Stoichiometry    C3H8Si
 Framework group  CS[SG(CH4Si),X(C2H4)]
 Deg. of freedom   18
 Full point group                 CS      NOp   2
 Largest Abelian subgroup         CS      NOp   2
 Largest concise Abelian subgroup CS      NOp   2
                         Standard orientation:                         
 ---------------------------------------------------------------------
 Center     Atomic     Atomic              Coordinates (Angstroms)
 Number     Number      Type              X           Y           Z
 ---------------------------------------------------------------------
    1          1             0        1.364371    1.621985    0.000000
    2         14             0        0.000000    1.046177    0.000000
    3          6             0        0.315694   -1.289672    0.000000
    4          1             0       -0.975730    2.160850    0.000000
    5          6             0       -0.163590   -0.407981    1.192070
    6          6             0       -0.163590   -0.407981   -1.192070
    7          1             0        1.408514   -1.342578    0.000000
    8          1             0       -0.069578   -2.312411    0.000000
    9          1             0       -1.214915   -0.616956    1.408877
   10          1             0        0.385586   -0.453303    2.131712
   11          1             0       -1.214915   -0.616956   -1.408877
   12          1             0        0.385586   -0.453303   -2.131712
 ---------------------------------------------------------------------
 Rotational constants (GHZ):      8.8687379      6.3001226      4.2914792
 Isotopes: H-1,Si-28,C-12,H-1,C-12,C-12,H-1,H-1,H-1,H-1,H-1,H-1
 Standard basis: 6-311++G(df,pd) (5D, 7F)
 There are   135 symmetry adapted basis functions of A'  symmetry.
 There are    85 symmetry adapted basis functions of A"  symmetry.
 Crude estimate of integral set expansion from redundant integrals=1.073.
 Integral buffers will be    131072 words long.
 Raffenetti 1 integral format.
 Two-electron integral symmetry is turned on.
   220 basis functions      318 primitive gaussians
    20 alpha electrons       20 beta electrons
       nuclear repulsion energy       169.2078313679 Hartrees.
 One-electron integrals computed using PRISM.
 NBasis=   220 RedAO= T  NBF=   135    85
 NBsUse=   220 1.00D-04 NBFU=   135    85
 Projected CNDO Guess.
 Initial guess orbital symmetries:
       Occupied  (A') (A') (A') (A') (A") (A') (A') (A") (A') (A")
                 (A') (A') (A') (A") (A') (A") (A') (A') (A") (A')
       Virtual   (A') (A") (A') (A') (A") (A') (A') (A') (A') (A')
                 (A") (A") (A') (A') (A') (A') (A') (A') (A') (A')
                 (A') (A') (A') (A') (A') (A') (A') (A') (A') (A')
                 (A') (A') (A') (A') (A') (A') (A') (A') (A') (A')
                 (A') (A') (A') (A') (A') (A') (A') (A') (A') (A')
                 (A') (A') (A') (A') (A') (A') (A') (A') (A') (A')
                 (A') (A') (A') (A') (A') (A') (A') (A') (A') (A')
                 (A') (A') (A') (A') (A') (A') (A') (A') (A') (A')
                 (A') (A') (A') (A') (A') (A') (A') (A') (A') (A')
                 (A') (A') (A') (A') (A') (A') (A') (A') (A') (A')
                 (A') (A') (A') (A') (A') (A') (A') (A') (A') (A')
                 (A') (A') (A') (A') (A') (A') (A') (A') (A') (A')
                 (A') (A') (A') (A') (A') (A") (A") (A") (A") (A")
                 (A") (A") (A") (A") (A") (A") (A") (A") (A") (A")
                 (A") (A") (A") (A") (A") (A") (A") (A") (A") (A")
                 (A") (A") (A") (A") (A") (A") (A") (A") (A") (A")
                 (A") (A") (A") (A") (A") (A") (A") (A") (A") (A")
                 (A") (A") (A") (A") (A") (A") (A") (A") (A") (A")
                 (A") (A") (A") (A") (A") (A") (A") (A") (A") (A")
                 (A") (A") (A") (A") (A") (A") (A") (A") (A") (A")
 Requested convergence on RMS density matrix=1.00D-08 within  64 cycles.
 Requested convergence on MAX density matrix=1.00D-06.
 SCF Done:  E(RHF) =  -407.207810014     A.U. after   12 cycles
             Convg  =    0.4662D-08             -V/T =  2.0003
             S**2   =   0.0000
 Range of M.O.s used for correlation:     9   220
 NBasis=   220 NAE=    20 NBE=    20 NFC=     8 NFV=     0
 NROrb=    212 NOA=    12 NOB=    12 NVA=   200 NVB=   200

 **** Warning!!: The largest alpha MO coefficient is  0.42022636D+02

 Fully direct method using O(ONN) memory.
 JobTyp=1 Pass  1:  I=   9 to  20.
 Spin components of T(2) and E(2):
     alpha-alpha T2 =       0.2434598310D-01 E2=     -0.6635670508D-01
     alpha-beta  T2 =       0.1634181358D+00 E2=     -0.4891261239D+00
     beta-beta   T2 =       0.2434598310D-01 E2=     -0.6635670508D-01
 ANorm=    0.1100958719D+01
 E2 =    -0.6218395341D+00 EUMP2 =    -0.40782964954775D+03
          Differentiating once with respect to electric field.
                with respect to dipole field.
          Differentiating once with respect to nuclear coordinates.
          There are   1 degrees of freedom in the 1st order CPHF.
 Petite list used in FoFDir.
 MinBra= 0 MaxBra= 3 Meth= 1.
 IRaf=       0 NMat=   1 IRICut=       1 DoRegI=T DoRafI=F ISym2E= 1 JSym2E=1.
   1 vectors were produced by pass  0.
 AX will form   1 AO Fock derivatives at one time.
   1 vectors were produced by pass  1.
   1 vectors were produced by pass  2.
   1 vectors were produced by pass  3.
   1 vectors were produced by pass  4.
   1 vectors were produced by pass  5.
   1 vectors were produced by pass  6.
   1 vectors were produced by pass  7.
   1 vectors were produced by pass  8.
   1 vectors were produced by pass  9.
   1 vectors were produced by pass 10.
   1 vectors were produced by pass 11.
 Inv2:  IOpt= 1 Iter= 1 AM= 2.73D-16 Conv= 1.00D-12.
 Inverted reduced A of dimension  12 with in-core refinement.

 **********************************************************************

            Population analysis using the SCF density.

 **********************************************************************

 Orbital Symmetries:
       Occupied  (A') (A') (A") (A') (A') (A') (A') (A") (A') (A")
                 (A') (A') (A') (A') (A") (A') (A") (A') (A") (A')
       Virtual   (A') (A") (A') (A') (A') (A') (A") (A") (A') (A')
                 (A') (A') (A") (A") (A') (A') (A") (A") (A') (A')
                 (A') (A") (A') (A') (A") (A') (A') (A') (A') (A')
                 (A") (A") (A') (A') (A") (A') (A') (A") (A') (A')
                 (A') (A") (A') (A') (A") (A') (A') (A") (A') (A")
                 (A') (A") (A') (A") (A') (A') (A') (A") (A") (A')
                 (A') (A') (A") (A') (A") (A") (A') (A') (A') (A')
                 (A") (A') (A") (A") (A') (A') (A') (A") (A') (A")
                 (A") (A') (A") (A') (A') (A') (A") (A') (A") (A')
                 (A') (A") (A') (A") (A") (A') (A") (A') (A") (A')
                 (A') (A') (A") (A") (A') (A") (A') (A') (A") (A')
                 (A') (A") (A') (A') (A") (A') (A') (A") (A') (A')
                 (A") (A') (A') (A") (A') (A') (A") (A") (A") (A')
                 (A') (A") (A') (A") (A") (A") (A') (A') (A') (A')
                 (A") (A') (A") (A') (A") (A") (A') (A') (A") (A')
                 (A") (A") (A') (A') (A") (A') (A') (A") (A') (A')
                 (A') (A") (A') (A") (A') (A') (A") (A') (A') (A")
                 (A') (A") (A') (A") (A') (A") (A') (A") (A') (A")
                 (A') (A") (A') (A') (A") (A") (A') (A') (A") (A')
                 (A') (A") (A') (A") (A') (A') (A') (A") (A') (A')
  The electronic state is 1-A'.
 Alpha  occ. eigenvalues --  -68.76402 -11.23163 -11.20472 -11.20470  -6.11101
 Alpha  occ. eigenvalues --   -4.21796  -4.21781  -4.21719  -1.06964  -0.89395
 Alpha  occ. eigenvalues --   -0.80588  -0.68427  -0.62485  -0.59621  -0.53630
 Alpha  occ. eigenvalues --   -0.49099  -0.47635  -0.45636  -0.41340  -0.39805
 Alpha virt. eigenvalues --    0.04538   0.05391   0.05897   0.06288   0.08185
 Alpha virt. eigenvalues --    0.08477   0.08849   0.09158   0.10141   0.12078
 Alpha virt. eigenvalues --    0.13472   0.14029   0.15467   0.17087   0.17210
 Alpha virt. eigenvalues --    0.18556   0.18731   0.19259   0.20224   0.20973
 Alpha virt. eigenvalues --    0.21674   0.22131   0.22180   0.23811   0.24747
 Alpha virt. eigenvalues --    0.25444   0.25961   0.27988   0.34601   0.35372
 Alpha virt. eigenvalues --    0.35593   0.38172   0.38859   0.40309   0.42870
 Alpha virt. eigenvalues --    0.43282   0.45071   0.45608   0.50760   0.55284
 Alpha virt. eigenvalues --    0.58796   0.59225   0.63418   0.67020   0.68157
 Alpha virt. eigenvalues --    0.69564   0.72599   0.72819   0.77136   0.79902
 Alpha virt. eigenvalues --    0.83244   0.86675   0.87217   0.87738   0.87905
 Alpha virt. eigenvalues --    0.91407   0.93047   0.93328   0.95553   1.00958
 Alpha virt. eigenvalues --    1.02442   1.04547   1.07711   1.09896   1.16047
 Alpha virt. eigenvalues --    1.16762   1.20298   1.23644   1.28520   1.36393
 Alpha virt. eigenvalues --    1.41833   1.47382   1.48984   1.51045   1.53460
 Alpha virt. eigenvalues --    1.57188   1.64417   1.64486   1.65084   1.71899
 Alpha virt. eigenvalues --    1.76302   1.77575   1.80796   1.84491   1.88182
 Alpha virt. eigenvalues --    1.91177   1.91908   1.93469   1.96555   1.97774
 Alpha virt. eigenvalues --    2.03108   2.05290   2.05766   2.06879   2.08338
 Alpha virt. eigenvalues --    2.15469   2.18681   2.19448   2.28250   2.29168
 Alpha virt. eigenvalues --    2.30284   2.37932   2.39136   2.44440   2.47342
 Alpha virt. eigenvalues --    2.52953   2.53784   2.56225   2.56383   2.57489
 Alpha virt. eigenvalues --    2.65303   2.66261   2.73786   2.75529   2.83305
 Alpha virt. eigenvalues --    2.84918   2.88499   2.88786   2.89384   2.96220
 Alpha virt. eigenvalues --    2.97103   3.00018   3.02810   3.11920   3.13778
 Alpha virt. eigenvalues --    3.16762   3.17931   3.28063   3.30779   3.32101
 Alpha virt. eigenvalues --    3.33139   3.35687   3.36327   3.38968   3.40493
 Alpha virt. eigenvalues --    3.42204   3.42790   3.44021   3.44652   3.51032
 Alpha virt. eigenvalues --    3.54258   3.57831   3.57834   3.59854   3.61475
 Alpha virt. eigenvalues --    3.68191   3.68855   3.70913   3.76322   3.80481
 Alpha virt. eigenvalues --    3.81976   3.84090   3.84177   3.90810   3.91260
 Alpha virt. eigenvalues --    3.98857   4.03598   4.05026   4.08721   4.12513
 Alpha virt. eigenvalues --    4.18852   4.20339   4.28388   4.37464   4.38573
 Alpha virt. eigenvalues --    4.42714   4.43749   4.45111   4.55538   4.58502
 Alpha virt. eigenvalues --    4.58730   4.69303   4.76233   4.77144   4.78809
 Alpha virt. eigenvalues --    4.81992   4.97246   4.98245   5.01147   5.04160
 Alpha virt. eigenvalues --    5.08451   5.21643   5.22493   5.28730   5.28803
 Alpha virt. eigenvalues --    5.34244   5.37460   5.49586   5.50391   5.53172
 Alpha virt. eigenvalues --    5.74542   5.79998   6.74513  12.40544  12.71344
 Alpha virt. eigenvalues --   12.76078  26.29345  26.34368  26.37875 144.47876
          Condensed to atoms (all electrons):
              1          2          3          4          5          6
  1  H    0.824032   0.407733  -0.004836  -0.032970  -0.034497  -0.034497
  2  Si   0.407733  12.380467   0.090667   0.429157   0.121836   0.121836
  3  C   -0.004836   0.090667   5.843967   0.046551  -0.164050  -0.164050
  4  H   -0.032970   0.429157   0.046551   0.816809  -0.059570  -0.059570
  5  C   -0.034497   0.121836  -0.164050  -0.059570   6.293324  -0.416651
  6  C   -0.034497   0.121836  -0.164050  -0.059570  -0.416651   6.293324
  7  H    0.006611  -0.029545   0.445447  -0.004575  -0.054132  -0.054132
  8  H    0.000105   0.031593   0.420678  -0.001332  -0.041000  -0.041000
  9  H    0.002842  -0.059053  -0.057880  -0.002330   0.362232   0.062460
 10  H    0.003678  -0.029465  -0.032549   0.002834   0.377504   0.034190
 11  H    0.002842  -0.059053  -0.057880  -0.002330   0.062460   0.362232
 12  H    0.003678  -0.029465  -0.032549   0.002834   0.034190   0.377504
              7          8          9         10         11         12
  1  H    0.006611   0.000105   0.002842   0.003678   0.002842   0.003678
  2  Si  -0.029545   0.031593  -0.059053  -0.029465  -0.059053  -0.029465
  3  C    0.445447   0.420678  -0.057880  -0.032549  -0.057880  -0.032549
  4  H   -0.004575  -0.001332  -0.002330   0.002834  -0.002330   0.002834
  5  C   -0.054132  -0.041000   0.362232   0.377504   0.062460   0.034190
  6  C   -0.054132  -0.041000   0.062460   0.034190   0.362232   0.377504
  7  H    0.535443  -0.016705   0.004117   0.000590   0.004117   0.000590
  8  H   -0.016705   0.518373  -0.004085  -0.003195  -0.004085  -0.003195
  9  H    0.004117  -0.004085   0.522768   0.004489  -0.011809  -0.000956
 10  H    0.000590  -0.003195   0.004489   0.495014  -0.000956   0.001207
 11  H    0.004117  -0.004085  -0.011809  -0.000956   0.522768   0.004489
 12  H    0.000590  -0.003195  -0.000956   0.001207   0.004489   0.495014
 Total atomic charges:
              1
  1  H   -0.144722
  2  Si   0.623291
  3  C   -0.333514
  4  H   -0.135508
  5  C   -0.481646
  6  C   -0.481646
  7  H    0.162175
  8  H    0.143847
  9  H    0.177204
 10  H    0.146658
 11  H    0.177204
 12  H    0.146658
 Sum of Mulliken charges=   0.00000
 Atomic charges with hydrogens summed into heavy atoms:
              1
  1  H    0.000000
  2  Si   0.343061
  3  C   -0.027492
  4  H    0.000000
  5  C   -0.157785
  6  C   -0.157785
  7  H    0.000000
  8  H    0.000000
  9  H    0.000000
 10  H    0.000000
 11  H    0.000000
 12  H    0.000000
 Sum of Mulliken charges=   0.00000
 Electronic spatial extent (au):  <R**2>=   370.9251
 Charge=     0.0000 electrons
 Dipole moment (Debye):
    X=    -0.1653    Y=    -0.2634    Z=     0.0000  Tot=     0.3109
 Quadrupole moment (Debye-Ang):
   XX=   -34.7359   YY=   -35.9168   ZZ=   -34.3768
   XY=     0.1265   XZ=     0.0000   YZ=     0.0000
 Octapole moment (Debye-Ang**2):
  XXX=    -1.9423  YYY=    -5.9624  ZZZ=     0.0000  XYY=     0.0473
  XXY=    -4.3982  XXZ=     0.0000  XZZ=     1.1223  YZZ=     0.7725
  YYZ=     0.0000  XYZ=     0.0000
 Hexadecapole moment (Debye-Ang**3):
 XXXX=   -89.9280 YYYY=  -278.9156 ZZZZ=  -189.8249 XXXY=     3.9131
 XXXZ=     0.0000 YYYX=     9.4159 YYYZ=     0.0000 ZZZX=     0.0000
 ZZZY=     0.0000 XXYY=   -65.4267 XXZZ=   -46.3327 YYZZ=   -78.2789
 XXYZ=     0.0000 YYXZ=     0.0000 ZZXY=     1.6614
 N-N= 1.692078313679D+02 E-N=-1.302672084977D+03  KE= 4.070714115984D+02
 Symmetry A'   KE= 3.411081071932D+02
 Symmetry A"   KE= 6.596330440523D+01
 ******************************Gaussian NBO Version 3.1******************************
             N A T U R A L   A T O M I C   O R B I T A L   A N D
          N A T U R A L   B O N D   O R B I T A L   A N A L Y S I S
 ******************************Gaussian NBO Version 3.1******************************
       /RESON  / : Allow strongly delocalized NBO set

 Analyzing the SCF density

 Job title: Si-CB mp2/6-311++G(df,pd) A2=free NPA FREQ 18.10.2002           

 Storage needed:    146290 in NPA (  91750400 available)


 NATURAL POPULATIONS:  Natural atomic orbital occupancies 
                                                          
  NAO Atom No lang   Type(AO)    Occupancy      Energy    
 ---------------------------------------------------------
   1    H  1  s      Val( 1s)     1.22342      -0.17898
   2    H  1  s      Ryd( 2s)     0.00092       0.67961
   3    H  1  s      Ryd( 3s)     0.00004       1.55938
   4    H  1  s      Ryd( 4s)     0.00001       2.14219
   5    H  1  px     Ryd( 2p)     0.00445       2.28227
   6    H  1  py     Ryd( 2p)     0.00074       2.01396
   7    H  1  pz     Ryd( 2p)     0.00001       1.83017
   8    H  1  dxy    Ryd( 3d)     0.00006       3.78667
   9    H  1  dxz    Ryd( 3d)     0.00000       3.63224
  10    H  1  dyz    Ryd( 3d)     0.00000       3.47134
  11    H  1  dx2y2  Ryd( 3d)     0.00005       3.73287
  12    H  1  dz2    Ryd( 3d)     0.00003       3.53764
 
  13   Si  2  s      Cor( 1s)     2.00000     -67.91888
  14   Si  2  s      Cor( 2s)     1.99913      -6.81806
  15   Si  2  s      Val( 3s)     0.90619      -0.15915
  16   Si  2  s      Ryd( 4s)     0.00129       0.71467
  17   Si  2  s      Ryd( 5s)     0.00016       4.64553
  18   Si  2  s      Ryd( 6s)     0.00002       7.65360
  19   Si  2  s      Ryd( 7s)     0.00000     138.28251
  20   Si  2  px     Cor( 2p)     1.99981      -4.20964
  21   Si  2  px     Val( 3p)     0.67770       0.09758
  22   Si  2  px     Ryd( 4p)     0.00014       1.01728
  23   Si  2  px     Ryd( 5p)     0.00003       1.30208
  24   Si  2  px     Ryd( 6p)     0.00004       1.37151
  25   Si  2  px     Ryd( 7p)     0.00000      10.84172
  26   Si  2  py     Cor( 2p)     1.99976      -4.20722
  27   Si  2  py     Val( 3p)     0.58541       0.13765
  28   Si  2  py     Ryd( 4p)     0.00161       0.97074
  29   Si  2  py     Ryd( 6p)     0.00025       1.55617
  30   Si  2  py     Ryd( 5p)     0.00001       1.36464
  31   Si  2  py     Ryd( 7p)     0.00000      11.46164
  32   Si  2  pz     Cor( 2p)     1.99985      -4.20952
  33   Si  2  pz     Val( 3p)     0.51319       0.07391
  34   Si  2  pz     Ryd( 5p)     0.00023       0.85072
  35   Si  2  pz     Ryd( 6p)     0.00021       1.44545
  36   Si  2  pz     Ryd( 4p)     0.00013       0.53905
  37   Si  2  pz     Ryd( 7p)     0.00000      11.87780
  38   Si  2  dxy    Ryd( 3d)     0.00837       1.39348
  39   Si  2  dxz    Ryd( 3d)     0.00066       1.06833
  40   Si  2  dyz    Ryd( 3d)     0.00887       1.37913
  41   Si  2  dx2y2  Ryd( 3d)     0.00519       1.37110
  42   Si  2  dz2    Ryd( 3d)     0.00594       1.22451
  43   Si  2  f(0)   Ryd( 4f)     0.00003       1.52966
  44   Si  2  f(C1)  Ryd( 4f)     0.00004       1.54154
  45   Si  2  f(S1)  Ryd( 4f)     0.00028       1.71785
  46   Si  2  f(C2)  Ryd( 4f)     0.00012       1.56552
  47   Si  2  f(S2)  Ryd( 4f)     0.00001       1.65756
  48   Si  2  f(C3)  Ryd( 4f)     0.00007       1.98923
  49   Si  2  f(S3)  Ryd( 4f)     0.00034       1.89756
 
  50    C  3  s      Cor( 1s)     1.99945     -11.08336
  51    C  3  s      Val( 2s)     1.02591      -0.24251
  52    C  3  s      Ryd( 3s)     0.00069       1.43715
  53    C  3  s      Ryd( 4s)     0.00007       6.30077
  54    C  3  s      Ryd( 5s)     0.00000      24.66012
  55    C  3  px     Val( 2p)     1.14953      -0.06127
  56    C  3  px     Ryd( 4p)     0.00245       0.81473
  57    C  3  px     Ryd( 3p)     0.00012       0.38597
  58    C  3  px     Ryd( 5p)     0.00003       3.99910
  59    C  3  py     Val( 2p)     1.12826      -0.06850
  60    C  3  py     Ryd( 4p)     0.00467       0.86109
  61    C  3  py     Ryd( 3p)     0.00024       0.48530
  62    C  3  py     Ryd( 5p)     0.00012       4.04210
  63    C  3  pz     Val( 2p)     1.01971      -0.04785
  64    C  3  pz     Ryd( 4p)     0.00237       0.77635
  65    C  3  pz     Ryd( 3p)     0.00098       0.67655
  66    C  3  pz     Ryd( 5p)     0.00017       3.85933
  67    C  3  dxy    Ryd( 3d)     0.00135       2.28371
  68    C  3  dxz    Ryd( 3d)     0.00040       2.18122
  69    C  3  dyz    Ryd( 3d)     0.00168       2.34791
  70    C  3  dx2y2  Ryd( 3d)     0.00388       2.42842
  71    C  3  dz2    Ryd( 3d)     0.00186       2.27754
  72    C  3  f(0)   Ryd( 4f)     0.00002       4.05468
  73    C  3  f(C1)  Ryd( 4f)     0.00016       3.88999
  74    C  3  f(S1)  Ryd( 4f)     0.00018       3.94609
  75    C  3  f(C2)  Ryd( 4f)     0.00001       4.15008
  76    C  3  f(S2)  Ryd( 4f)     0.00001       3.94401
  77    C  3  f(C3)  Ryd( 4f)     0.00022       4.09983
  78    C  3  f(S3)  Ryd( 4f)     0.00008       4.21559
 
  79    H  4  s      Val( 1s)     1.22070      -0.18034
  80    H  4  s      Ryd( 2s)     0.00068       0.58858
  81    H  4  s      Ryd( 3s)     0.00003       1.62393
  82    H  4  s      Ryd( 4s)     0.00001       1.98956
  83    H  4  px     Ryd( 2p)     0.00234       2.09811
  84    H  4  py     Ryd( 2p)     0.00301       2.15978
  85    H  4  pz     Ryd( 2p)     0.00001       1.84030
  86    H  4  dxy    Ryd( 3d)     0.00013       3.74758
  87    H  4  dxz    Ryd( 3d)     0.00000       3.54475
  88    H  4  dyz    Ryd( 3d)     0.00000       3.56355
  89    H  4  dx2y2  Ryd( 3d)     0.00000       3.73360
  90    H  4  dz2    Ryd( 3d)     0.00004       3.53157
 
  91    C  5  s      Cor( 1s)     1.99941     -11.05760
  92    C  5  s      Val( 2s)     1.13422      -0.33911
  93    C  5  s      Ryd( 3s)     0.00311       2.07910
  94    C  5  s      Ryd( 4s)     0.00021       5.34597
  95    C  5  s      Ryd( 5s)     0.00002      15.96145
  96    C  5  px     Val( 2p)     1.18865      -0.07660
  97    C  5  px     Ryd( 4p)     0.00128       0.82422
  98    C  5  px     Ryd( 3p)     0.00009       0.34362
  99    C  5  px     Ryd( 5p)     0.00002       4.08411
 100    C  5  py     Val( 2p)     1.29003      -0.15294
 101    C  5  py     Ryd( 4p)     0.00276       0.74878
 102    C  5  py     Ryd( 3p)     0.00024       0.41988
 103    C  5  py     Ryd( 5p)     0.00010       3.64813
 104    C  5  pz     Val( 2p)     1.17229      -0.09342
 105    C  5  pz     Ryd( 4p)     0.00409       0.78013
 106    C  5  pz     Ryd( 3p)     0.00030       0.73551
 107    C  5  pz     Ryd( 5p)     0.00004       4.44461
 108    C  5  dxy    Ryd( 3d)     0.00031       2.02502
 109    C  5  dxz    Ryd( 3d)     0.00225       2.32335
 110    C  5  dyz    Ryd( 3d)     0.00269       2.23668
 111    C  5  dx2y2  Ryd( 3d)     0.00306       2.19685
 112    C  5  dz2    Ryd( 3d)     0.00226       2.27424
 113    C  5  f(0)   Ryd( 4f)     0.00012       4.11075
 114    C  5  f(C1)  Ryd( 4f)     0.00024       4.04617
 115    C  5  f(S1)  Ryd( 4f)     0.00005       3.88761
 116    C  5  f(C2)  Ryd( 4f)     0.00016       4.01728
 117    C  5  f(S2)  Ryd( 4f)     0.00002       3.92948
 118    C  5  f(C3)  Ryd( 4f)     0.00016       3.73059
 119    C  5  f(S3)  Ryd( 4f)     0.00007       3.80736
 
 120    C  6  s      Cor( 1s)     1.99941     -11.05760
 121    C  6  s      Val( 2s)     1.13422      -0.33911
 122    C  6  s      Ryd( 3s)     0.00311       2.07910
 123    C  6  s      Ryd( 4s)     0.00021       5.34597
 124    C  6  s      Ryd( 5s)     0.00002      15.96145
 125    C  6  px     Val( 2p)     1.18865      -0.07660
 126    C  6  px     Ryd( 4p)     0.00128       0.82422
 127    C  6  px     Ryd( 3p)     0.00009       0.34362
 128    C  6  px     Ryd( 5p)     0.00002       4.08411
 129    C  6  py     Val( 2p)     1.29003      -0.15294
 130    C  6  py     Ryd( 4p)     0.00276       0.74878
 131    C  6  py     Ryd( 3p)     0.00024       0.41988
 132    C  6  py     Ryd( 5p)     0.00010       3.64813
 133    C  6  pz     Val( 2p)     1.17229      -0.09342
 134    C  6  pz     Ryd( 4p)     0.00409       0.78013
 135    C  6  pz     Ryd( 3p)     0.00030       0.73551
 136    C  6  pz     Ryd( 5p)     0.00004       4.44461
 137    C  6  dxy    Ryd( 3d)     0.00031       2.02502
 138    C  6  dxz    Ryd( 3d)     0.00225       2.32335
 139    C  6  dyz    Ryd( 3d)     0.00269       2.23668
 140    C  6  dx2y2  Ryd( 3d)     0.00306       2.19685
 141    C  6  dz2    Ryd( 3d)     0.00226       2.27424
 142    C  6  f(0)   Ryd( 4f)     0.00012       4.11075
 143    C  6  f(C1)  Ryd( 4f)     0.00024       4.04617
 144    C  6  f(S1)  Ryd( 4f)     0.00005       3.88761
 145    C  6  f(C2)  Ryd( 4f)     0.00016       4.01728
 146    C  6  f(S2)  Ryd( 4f)     0.00002       3.92948
 147    C  6  f(C3)  Ryd( 4f)     0.00016       3.73059
 148    C  6  f(S3)  Ryd( 4f)     0.00007       3.80736
 
 149    H  7  s      Val( 1s)     0.82874       0.09786
 150    H  7  s      Ryd( 3s)     0.00142       0.68849
 151    H  7  s      Ryd( 4s)     0.00013       2.66114
 152    H  7  s      Ryd( 2s)     0.00001       0.45125
 153    H  7  px     Ryd( 2p)     0.00044       3.03873
 154    H  7  py     Ryd( 2p)     0.00005       2.25277
 155    H  7  pz     Ryd( 2p)     0.00005       2.08968
 156    H  7  dxy    Ryd( 3d)     0.00001       4.53067
 157    H  7  dxz    Ryd( 3d)     0.00001       4.48629
 158    H  7  dyz    Ryd( 3d)     0.00000       3.61796
 159    H  7  dx2y2  Ryd( 3d)     0.00001       4.22183
 160    H  7  dz2    Ryd( 3d)     0.00001       3.79021
 
 161    H  8  s      Val( 1s)     0.82024       0.11769
 162    H  8  s      Ryd( 3s)     0.00118       0.57327
 163    H  8  s      Ryd( 4s)     0.00016       2.70159
 164    H  8  s      Ryd( 2s)     0.00001       0.46212
 165    H  8  px     Ryd( 2p)     0.00007       2.32340
 166    H  8  py     Ryd( 2p)     0.00035       3.02496
 167    H  8  pz     Ryd( 2p)     0.00005       2.14105
 168    H  8  dxy    Ryd( 3d)     0.00001       4.35182
 169    H  8  dxz    Ryd( 3d)     0.00001       3.70950
 170    H  8  dyz    Ryd( 3d)     0.00001       4.38117
 171    H  8  dx2y2  Ryd( 3d)     0.00001       4.35969
 172    H  8  dz2    Ryd( 3d)     0.00001       3.76743
 
 173    H  9  s      Val( 1s)     0.80480       0.11242
 174    H  9  s      Ryd( 2s)     0.00104       0.66791
 175    H  9  s      Ryd( 4s)     0.00017       2.56067
 176    H  9  s      Ryd( 3s)     0.00006       0.80448
 177    H  9  px     Ryd( 2p)     0.00034       2.90422
 178    H  9  py     Ryd( 2p)     0.00006       2.10082
 179    H  9  pz     Ryd( 2p)     0.00006       2.29575
 180    H  9  dxy    Ryd( 3d)     0.00002       4.38210
 181    H  9  dxz    Ryd( 3d)     0.00001       4.47474
 182    H  9  dyz    Ryd( 3d)     0.00000       3.66606
 183    H  9  dx2y2  Ryd( 3d)     0.00001       4.19856
 184    H  9  dz2    Ryd( 3d)     0.00000       3.84775
 
 185    H 10  s      Val( 1s)     0.79916       0.13217
 186    H 10  s      Ryd( 3s)     0.00060       0.70365
 187    H 10  s      Ryd( 4s)     0.00018       2.48629
 188    H 10  s      Ryd( 2s)     0.00005       0.61293
 189    H 10  px     Ryd( 2p)     0.00012       2.37828
 190    H 10  py     Ryd( 2p)     0.00002       2.10289
 191    H 10  pz     Ryd( 2p)     0.00028       2.83995
 192    H 10  dxy    Ryd( 3d)     0.00001       3.80413
 193    H 10  dxz    Ryd( 3d)     0.00001       4.25523
 194    H 10  dyz    Ryd( 3d)     0.00001       4.24114
 195    H 10  dx2y2  Ryd( 3d)     0.00000       3.78752
 196    H 10  dz2    Ryd( 3d)     0.00001       4.44720
 
 197    H 11  s      Val( 1s)     0.80480       0.11242
 198    H 11  s      Ryd( 2s)     0.00104       0.66791
 199    H 11  s      Ryd( 4s)     0.00017       2.56067
 200    H 11  s      Ryd( 3s)     0.00006       0.80448
 201    H 11  px     Ryd( 2p)     0.00034       2.90422
 202    H 11  py     Ryd( 2p)     0.00006       2.10082
 203    H 11  pz     Ryd( 2p)     0.00006       2.29575
 204    H 11  dxy    Ryd( 3d)     0.00002       4.38210
 205    H 11  dxz    Ryd( 3d)     0.00001       4.47474
 206    H 11  dyz    Ryd( 3d)     0.00000       3.66606
 207    H 11  dx2y2  Ryd( 3d)     0.00001       4.19856
 208    H 11  dz2    Ryd( 3d)     0.00000       3.84775
 
 209    H 12  s      Val( 1s)     0.79916       0.13217
 210    H 12  s      Ryd( 3s)     0.00060       0.70365
 211    H 12  s      Ryd( 4s)     0.00018       2.48629
 212    H 12  s      Ryd( 2s)     0.00005       0.61293
 213    H 12  px     Ryd( 2p)     0.00012       2.37828
 214    H 12  py     Ryd( 2p)     0.00002       2.10289
 215    H 12  pz     Ryd( 2p)     0.00028       2.83995
 216    H 12  dxy    Ryd( 3d)     0.00001       3.80413
 217    H 12  dxz    Ryd( 3d)     0.00001       4.25523
 218    H 12  dyz    Ryd( 3d)     0.00001       4.24114
 219    H 12  dx2y2  Ryd( 3d)     0.00000       3.78752
 220    H 12  dz2    Ryd( 3d)     0.00001       4.44720

 WARNING:  Population inversion found on atom Si 2
           Population inversion found on atom  C 3
           Population inversion found on atom  C 5
           Population inversion found on atom  C 6
           Population inversion found on atom  H 7
           Population inversion found on atom  H 8
           Population inversion found on atom  H 9
           Population inversion found on atom  H10
           Population inversion found on atom  H11
           Population inversion found on atom  H12


 Summary of Natural Population Analysis:                  
                                                          
                                       Natural Population 
               Natural   -----------------------------------------------
    Atom No    Charge        Core      Valence    Rydberg      Total
 -----------------------------------------------------------------------
      H  1   -0.22973      0.00000     1.22342    0.00631     1.22973
     Si  2    1.28491      9.99855     2.68250    0.03404    12.71509
      C  3   -0.34465      1.99945     4.32341    0.02179     6.34465
      H  4   -0.22696      0.00000     1.22070    0.00626     1.22696
      C  5   -0.80825      1.99941     4.78518    0.02366     6.80825
      C  6   -0.80825      1.99941     4.78518    0.02366     6.80825
      H  7    0.16910      0.00000     0.82874    0.00215     0.83090
      H  8    0.17790      0.00000     0.82024    0.00187     0.82210
      H  9    0.19342      0.00000     0.80480    0.00178     0.80658
      H 10    0.19954      0.00000     0.79916    0.00129     0.80046
      H 11    0.19342      0.00000     0.80480    0.00178     0.80658
      H 12    0.19954      0.00000     0.79916    0.00129     0.80046
 =======================================================================
   * Total *  0.00000     15.99683    23.87728    0.12588    40.00000

                                 Natural Population      
 --------------------------------------------------------
   Core                      15.99683 ( 99.9802% of  16)
   Valence                   23.87728 ( 99.4887% of  24)
   Natural Minimal Basis     39.87412 ( 99.6853% of  40)
   Natural Rydberg Basis      0.12588 (  0.3147% of  40)
 --------------------------------------------------------

    Atom No         Natural Electron Configuration
 ----------------------------------------------------------------------------
      H  1            1s( 1.22)2p( 0.01)
     Si  2      [core]3s( 0.91)3p( 1.78)3d( 0.03)
      C  3      [core]2s( 1.03)2p( 3.30)3d( 0.01)4p( 0.01)
      H  4            1s( 1.22)2p( 0.01)
      C  5      [core]2s( 1.13)2p( 3.65)3d( 0.01)4p( 0.01)
      C  6      [core]2s( 1.13)2p( 3.65)3d( 0.01)4p( 0.01)
      H  7            1s( 0.83)
      H  8            1s( 0.82)
      H  9            1s( 0.80)
      H 10            1s( 0.80)
      H 11            1s( 0.80)
      H 12            1s( 0.80)


 NBO analysis skipped by request.
 ***** Axes restored to original set *****
 -------------------------------------------------------------------
 Center     Atomic                   Forces (Hartrees/Bohr)
 Number     Number              X              Y              Z
 -------------------------------------------------------------------
    1          1           0.000114695    0.000000000    0.000039287
    2         14          -0.000386660    0.000000000    0.001275937
    3          6           0.002050813    0.000000000   -0.002769822
    4          1          -0.000135696    0.000000000   -0.000150397
    5          6          -0.003517891    0.000286633    0.002023453
    6          6          -0.003517891   -0.000286633    0.002023453
    7          1           0.000350440    0.000000000   -0.000031101
    8          1          -0.000126573    0.000000000   -0.000017531
    9          1          -0.000677672   -0.001127111    0.000515573
   10          1           0.003262053   -0.001648906   -0.001712213
   11          1          -0.000677672    0.001127111    0.000515573
   12          1           0.003262053    0.001648906   -0.001712213
 -------------------------------------------------------------------
 Cartesian Forces:  Max     0.003517891 RMS     0.001523239

 GradGradGradGradGradGradGradGradGradGradGradGradGradGradGradGradGradGrad
 Berny optimization.
 Internal  Forces:  Max     0.002516645 RMS     0.000819801
 Search for a local minimum.
 Step number   1 out of a maximum of  82
 All quantities printed in internal units (Hartrees-Bohrs-Radians)
 Second derivative matrix not updated -- first step.
     Eigenvalues ---    0.00605   0.02460   0.02569   0.03328   0.04155
     Eigenvalues ---    0.04668   0.04742   0.05055   0.05070   0.06051
     Eigenvalues ---    0.06242   0.06529   0.06974   0.07765   0.07871
     Eigenvalues ---    0.08552   0.09563   0.17707   0.17731   0.19818
     Eigenvalues ---    0.20123   0.21090   0.25596   0.25800   0.34343
     Eigenvalues ---    0.34400   0.34400   0.34480   0.34894   0.34894
     Eigenvalues --- 1000.000001000.000001000.000001000.000001000.00000
     Eigenvalues --- 1000.000001000.000001000.000001000.000001000.00000
     Eigenvalues --- 1000.000001000.000001000.000001000.000001000.00000
     Eigenvalues --- 1000.000001000.000001000.000001000.000001000.00000
     Eigenvalues --- 1000.000001000.000001000.000001000.000001000.00000
     Eigenvalues --- 1000.000001000.000001000.000001000.000001000.00000
     Eigenvalues --- 1000.000001000.000001000.000001000.000001000.00000
     Eigenvalues --- 1000.000001000.000001000.000001000.000001000.00000
     Eigenvalues --- 1000.000001000.00000
 RFO step:  Lambda=-5.70485656D-04.
 Linear search not attempted -- first point.
 Iteration  1 RMS(Cart)=  0.01051063 RMS(Int)=  0.00015305
 Iteration  2 RMS(Cart)=  0.00014767 RMS(Int)=  0.00004309
 Iteration  3 RMS(Cart)=  0.00000000 RMS(Int)=  0.00004309
 Variable       Old X    -DE/DX   Delta X   Delta X   Delta X     New X
                                 (Linear)    (Quad)   (Total)
    R1        2.79850  -0.00004   0.00000  -0.00022  -0.00022   2.79827
    R2        2.79944   0.00008   0.00000   0.00046   0.00046   2.79990
    R3        3.56671  -0.00039   0.00000  -0.00134  -0.00135   3.56536
    R4        3.56671  -0.00039   0.00000  -0.00134  -0.00135   3.56536
    R5        2.94465  -0.00071   0.00000  -0.00317  -0.00316   2.94149
    R6        2.94465  -0.00071   0.00000  -0.00317  -0.00316   2.94149
    R7        2.06755   0.00018   0.00000   0.00052   0.00052   2.06807
    R8        2.06528  -0.00010   0.00000  -0.00030  -0.00030   2.06498
    R9        2.06660   0.00041   0.00000   0.00118   0.00118   2.06778
   R10        2.05848   0.00011   0.00000   0.00031   0.00031   2.05879
   R11        2.06660   0.00041   0.00000   0.00118   0.00118   2.06778
   R12        2.05848   0.00011   0.00000   0.00031   0.00031   2.05879
    A1        1.89047  -0.00030   0.00000   0.00005   0.00005   1.89052
    A2        1.95997  -0.00018   0.00000  -0.00219  -0.00222   1.95775
    A3        1.95997  -0.00018   0.00000  -0.00219  -0.00222   1.95775
    A4        2.12073   0.00090   0.00000   0.00396   0.00397   2.12470
    A5        2.12073   0.00090   0.00000   0.00396   0.00397   2.12470
    A6        1.36719  -0.00131   0.00000  -0.00489  -0.00490   1.36230
    A7        1.74211  -0.00160   0.00000  -0.00547  -0.00549   1.73662
    A8        1.91196   0.00071   0.00000   0.00377   0.00380   1.91575
    A9        2.00542   0.00030   0.00000  -0.00097  -0.00098   2.00444
   A10        1.91196   0.00071   0.00000   0.00377   0.00380   1.91575
   A11        2.00542   0.00030   0.00000  -0.00097  -0.00098   2.00444
   A12        1.88269  -0.00037   0.00000   0.00011   0.00011   1.88280
   A13        1.49684   0.00136   0.00000   0.00275   0.00276   1.49959
   A14        1.93452  -0.00081   0.00000  -0.00299  -0.00304   1.93149
   A15        2.13314   0.00031   0.00000   0.00900   0.00883   2.14197
   A16        1.91690   0.00003   0.00000   0.00380   0.00379   1.92069
   A17        2.07293  -0.00252   0.00000  -0.03339  -0.03331   2.03962
   A18        1.88147   0.00137   0.00000   0.01654   0.01643   1.89790
   A19        1.49684   0.00136   0.00000   0.00275   0.00276   1.49959
   A20        1.93452  -0.00081   0.00000  -0.00299  -0.00304   1.93149
   A21        2.13314   0.00031   0.00000   0.00900   0.00883   2.14197
   A22        1.91690   0.00003   0.00000   0.00380   0.00379   1.92069
   A23        2.07293  -0.00252   0.00000  -0.03339  -0.03331   2.03962
   A24        1.88147   0.00137   0.00000   0.01654   0.01643   1.89790
    D1       -1.53249   0.00092   0.00000   0.00910   0.00910  -1.52339
    D2        2.83748   0.00042   0.00000   0.00416   0.00418   2.84166
    D3        0.58957  -0.00110   0.00000  -0.02701  -0.02706   0.56251
    D4        2.47260   0.00065   0.00000   0.00736   0.00737   2.47996
    D5        0.55938   0.00015   0.00000   0.00242   0.00245   0.56183
    D6       -1.68853  -0.00137   0.00000  -0.02875  -0.02880  -1.71733
    D7        0.37892   0.00026   0.00000   0.00512   0.00511   0.38403
    D8       -1.53430  -0.00024   0.00000   0.00018   0.00019  -1.53410
    D9        2.50098  -0.00176   0.00000  -0.03100  -0.03106   2.46993
   D10        1.53249  -0.00092   0.00000  -0.00910  -0.00910   1.52339
   D11       -2.83748  -0.00042   0.00000  -0.00416  -0.00418  -2.84166
   D12       -0.58957   0.00110   0.00000   0.02701   0.02706  -0.56251
   D13       -2.47260  -0.00065   0.00000  -0.00736  -0.00737  -2.47996
   D14       -0.55938  -0.00015   0.00000  -0.00242  -0.00245  -0.56183
   D15        1.68853   0.00137   0.00000   0.02875   0.02880   1.71733
   D16       -0.37892  -0.00026   0.00000  -0.00512  -0.00511  -0.38403
   D17        1.53430   0.00024   0.00000  -0.00018  -0.00019   1.53410
   D18       -2.50098   0.00176   0.00000   0.03100   0.03106  -2.46993
   D19       -0.46154  -0.00012   0.00000  -0.00577  -0.00575  -0.46729
   D20        1.46950  -0.00050   0.00000  -0.00775  -0.00777   1.46173
   D21       -2.63792  -0.00060   0.00000  -0.00837  -0.00841  -2.64633
   D22        1.54462   0.00017   0.00000  -0.00278  -0.00276   1.54187
   D23       -2.80752  -0.00020   0.00000  -0.00477  -0.00478  -2.81230
   D24       -0.63175  -0.00031   0.00000  -0.00539  -0.00542  -0.63717
   D25       -2.61643   0.00044   0.00000  -0.00043  -0.00040  -2.61683
   D26       -0.68539   0.00006   0.00000  -0.00241  -0.00242  -0.68781
   D27        1.49038  -0.00004   0.00000  -0.00303  -0.00306   1.48731
   D28        0.46154   0.00012   0.00000   0.00577   0.00575   0.46729
   D29       -1.46950   0.00050   0.00000   0.00775   0.00777  -1.46173
   D30        2.63792   0.00060   0.00000   0.00837   0.00841   2.64633
   D31       -1.54462  -0.00017   0.00000   0.00278   0.00276  -1.54187
   D32        2.80752   0.00020   0.00000   0.00477   0.00478   2.81230
   D33        0.63175   0.00031   0.00000   0.00539   0.00542   0.63717
   D34        2.61643  -0.00044   0.00000   0.00043   0.00040   2.61683
   D35        0.68539  -0.00006   0.00000   0.00241   0.00242   0.68781
   D36       -1.49038   0.00004   0.00000   0.00303   0.00306  -1.48731
         Item               Value     Threshold  Converged?
 Maximum Force            0.002517     0.000450     NO 
 RMS     Force            0.000820     0.000300     NO 
 Maximum Displacement     0.045837     0.001800     NO 
 RMS     Displacement     0.010547     0.001200     NO 
 Predicted change in Energy=-2.809773D-04
 GradGradGradGradGradGradGradGradGradGradGradGradGradGradGradGradGradGrad

                          Input orientation:                          
 ---------------------------------------------------------------------
 Center     Atomic     Atomic              Coordinates (Angstroms)
 Number     Number      Type              X           Y           Z
 ---------------------------------------------------------------------
    1          1             0       -0.964662    0.000000   -1.884838
    2         14             0       -0.970572    0.000000   -0.404067
    3          6             0        1.307853    0.000000    0.207085
    4          1             0       -2.378976    0.000000    0.056003
    5          6             0        0.307719    1.188033    0.313025
    6          6             0        0.307719   -1.188033    0.313025
    7          1             0        1.779197    0.000000   -0.780586
    8          1             0        2.101967    0.000000    0.957728
    9          1             0        0.089423    1.402025    1.363681
   10          1             0        0.591814    2.116261   -0.181566
   11          1             0        0.089423   -1.402025    1.363681
   12          1             0        0.591814   -2.116261   -0.181566
 ---------------------------------------------------------------------
                    Distance matrix (angstroms):
                    1          2          3          4          5
     1  H    0.000000
     2  Si   1.480783   0.000000
     3  C    3.088765   2.358967   0.000000
     4  H    2.401488   1.481643   3.689923   0.000000
     5  C    2.803744   1.886709   1.556571   2.948866   0.000000
     6  C    2.803744   1.886709   1.556571   2.948866   2.376066
     7  H    2.957725   2.775427   1.094377   4.241496   2.184641
     8  H    4.181435   3.360801   1.092741   4.570772   2.246418
     9  H    3.691834   2.492828   2.188141   3.125490   1.094223
    10  H    3.130865   2.639908   2.267668   3.655214   1.089466
    11  H    3.691834   2.492828   2.188141   3.125490   2.803557
    12  H    3.130865   2.639908   2.267668   3.655214   3.353161
                    6          7          8          9         10
     6  C    0.000000
     7  H    2.184641   0.000000
     8  H    2.246418   1.768027   0.000000
     9  H    2.803557   3.069022   2.486123   0.000000
    10  H    3.353161   2.499452   2.838505   1.774914   0.000000
    11  H    1.094223   3.069022   2.486123   2.804049   3.875373
    12  H    1.089466   2.499452   2.838505   3.875373   4.232521
                   11         12
    11  H    0.000000
    12  H    1.774914   0.000000
 Stoichiometry    C3H8Si
 Framework group  CS[SG(CH4Si),X(C2H4)]
 Deg. of freedom   18
 Full point group                 CS      NOp   2
 Largest Abelian subgroup         CS      NOp   2
 Largest concise Abelian subgroup CS      NOp   2
                         Standard orientation:                         
 ---------------------------------------------------------------------
 Center     Atomic     Atomic              Coordinates (Angstroms)
 Number     Number      Type              X           Y           Z
 ---------------------------------------------------------------------
    1          1             0        1.367861    1.615592    0.000000
    2         14             0        0.000000    1.048427    0.000000
    3          6             0        0.317460   -1.289081    0.000000
    4          1             0       -0.968908    2.169356    0.000000
    5          6             0       -0.166991   -0.407719    1.188033
    6          6             0       -0.166991   -0.407719   -1.188033
    7          1             0        1.410565   -1.341825    0.000000
    8          1             0       -0.067704   -2.311691    0.000000
    9          1             0       -1.220326   -0.612693    1.402025
   10          1             0        0.398984   -0.478455    2.116261
   11          1             0       -1.220326   -0.612693   -1.402025
   12          1             0        0.398984   -0.478455   -2.116261
 ---------------------------------------------------------------------
 Rotational constants (GHZ):      8.9181018      6.2810317      4.3003966
 Isotopes: H-1,Si-28,C-12,H-1,C-12,C-12,H-1,H-1,H-1,H-1,H-1,H-1
 Standard basis: 6-311++G(df,pd) (5D, 7F)
 There are   135 symmetry adapted basis functions of A'  symmetry.
 There are    85 symmetry adapted basis functions of A"  symmetry.
 Crude estimate of integral set expansion from redundant integrals=1.073.
 Integral buffers will be    131072 words long.
 Raffenetti 1 integral format.
 Two-electron integral symmetry is turned on.
   220 basis functions      318 primitive gaussians
    20 alpha electrons       20 beta electrons
       nuclear repulsion energy       169.3005386494 Hartrees.
 One-electron integrals computed using PRISM.
 NBasis=   220 RedAO= T  NBF=   135    85
 NBsUse=   220 1.00D-04 NBFU=   135    85
 Initial guess read from the read-write file:
 Initial guess orbital symmetries:
       Occupied  (A') (A') (A") (A') (A') (A') (A') (A") (A') (A")
                 (A') (A') (A') (A') (A") (A') (A") (A') (A") (A')
       Virtual   (A') (A") (A') (A') (A') (A') (A") (A") (A') (A')
                 (A') (A') (A") (A") (A') (A') (A") (A") (A') (A')
                 (A') (A") (A') (A') (A") (A') (A') (A') (A') (A')
                 (A") (A") (A') (A') (A") (A') (A') (A") (A') (A')
                 (A') (A") (A') (A') (A") (A') (A') (A") (A') (A")
                 (A') (A") (A') (A") (A') (A') (A') (A") (A") (A')
                 (A') (A') (A") (A') (A") (A") (A') (A') (A') (A')
                 (A") (A') (A") (A") (A') (A') (A') (A") (A') (A")
                 (A") (A') (A") (A') (A') (A') (A") (A') (A") (A')
                 (A') (A") (A') (A") (A") (A') (A") (A') (A") (A')
                 (A') (A') (A") (A") (A') (A") (A') (A') (A") (A')
                 (A') (A") (A') (A') (A") (A') (A') (A") (A') (A')
                 (A") (A') (A') (A") (A') (A') (A") (A") (A") (A')
                 (A') (A") (A') (A") (A") (A") (A') (A') (A') (A')
                 (A") (A') (A") (A') (A") (A") (A') (A') (A") (A')
                 (A") (A") (A') (A') (A") (A') (A') (A") (A') (A')
                 (A') (A") (A') (A") (A') (A') (A") (A') (A') (A")
                 (A') (A") (A') (A") (A') (A") (A') (A") (A') (A")
                 (A') (A") (A') (A') (A") (A") (A') (A') (A") (A')
                 (A') (A") (A') (A") (A') (A') (A') (A") (A') (A')
 Requested convergence on RMS density matrix=1.00D-08 within  64 cycles.
 Requested convergence on MAX density matrix=1.00D-06.
 SCF Done:  E(RHF) =  -407.208097295     A.U. after    8 cycles
             Convg  =    0.9052D-08             -V/T =  2.0003
             S**2   =   0.0000
 Range of M.O.s used for correlation:     9   220
 NBasis=   220 NAE=    20 NBE=    20 NFC=     8 NFV=     0
 NROrb=    212 NOA=    12 NOB=    12 NVA=   200 NVB=   200

 **** Warning!!: The largest alpha MO coefficient is  0.43666801D+02

 Fully direct method using O(ONN) memory.
 JobTyp=1 Pass  1:  I=   9 to  20.
 Spin components of T(2) and E(2):
     alpha-alpha T2 =       0.2433662346D-01 E2=     -0.6636134926D-01
     alpha-beta  T2 =       0.1633732605D+00 E2=     -0.4891473103D+00
     beta-beta   T2 =       0.2433662346D-01 E2=     -0.6636134926D-01
 ANorm=    0.1100929838D+01
 E2 =    -0.6218700089D+00 EUMP2 =    -0.40782996730386D+03
          Differentiating once with respect to electric field.
                with respect to dipole field.
          Differentiating once with respect to nuclear coordinates.
          There are   1 degrees of freedom in the 1st order CPHF.
 Petite list used in FoFDir.
 MinBra= 0 MaxBra= 3 Meth= 1.
 IRaf=       0 NMat=   1 IRICut=       1 DoRegI=T DoRafI=F ISym2E= 1 JSym2E=1.
   1 vectors were produced by pass  0.
 AX will form   1 AO Fock derivatives at one time.
   1 vectors were produced by pass  1.
   1 vectors were produced by pass  2.
   1 vectors were produced by pass  3.
   1 vectors were produced by pass  4.
   1 vectors were produced by pass  5.
   1 vectors were produced by pass  6.
   1 vectors were produced by pass  7.
   1 vectors were produced by pass  8.
   1 vectors were produced by pass  9.
   1 vectors were produced by pass 10.
   1 vectors were produced by pass 11.
 Inv2:  IOpt= 1 Iter= 1 AM= 3.94D-16 Conv= 1.00D-12.
 Inverted reduced A of dimension  12 with in-core refinement.
 ***** Axes restored to original set *****
 -------------------------------------------------------------------
 Center     Atomic                   Forces (Hartrees/Bohr)
 Number     Number              X              Y              Z
 -------------------------------------------------------------------
    1          1          -0.000091983    0.000000000   -0.000047688
    2         14           0.000213453    0.000000000   -0.000164419
    3          6           0.000145352    0.000000000    0.000062256
    4          1           0.000160763    0.000000000    0.000084291
    5          6          -0.000786220    0.001798474    0.000524761
    6          6          -0.000786220   -0.001798474    0.000524761
    7          1          -0.000297382    0.000000000    0.000126126
    8          1           0.000171308    0.000000000    0.000021414
    9          1           0.000113565   -0.000437635   -0.000140581
   10          1           0.000521899   -0.000341068   -0.000425170
   11          1           0.000113565    0.000437635   -0.000140581
   12          1           0.000521899    0.000341068   -0.000425170
 -------------------------------------------------------------------
 Cartesian Forces:  Max     0.001798474 RMS     0.000530168

 GradGradGradGradGradGradGradGradGradGradGradGradGradGradGradGradGradGrad
 Berny optimization.
 Internal  Forces:  Max     0.000395595 RMS     0.000187949
 Search for a local minimum.
 Step number   2 out of a maximum of  82
 All quantities printed in internal units (Hartrees-Bohrs-Radians)
 Update second derivatives using information from points  1  2
 Trust test= 1.13D+00 RLast= 9.51D-02 DXMaxT set to 3.00D-01
     Eigenvalues ---    0.00608   0.02344   0.02598   0.03320   0.04045
     Eigenvalues ---    0.04131   0.04731   0.05042   0.05154   0.06067
     Eigenvalues ---    0.06202   0.06553   0.06876   0.07830   0.07921
     Eigenvalues ---    0.08609   0.09524   0.17711   0.17731   0.19806
     Eigenvalues ---    0.20188   0.22431   0.25563   0.26407   0.34352
     Eigenvalues ---    0.34400   0.34469   0.34593   0.34892   0.34894
     Eigenvalues --- 1000.000001000.000001000.000001000.000001000.00000
     Eigenvalues --- 1000.000001000.000001000.000001000.000001000.00000
     Eigenvalues --- 1000.000001000.000001000.000001000.000001000.00000
     Eigenvalues --- 1000.000001000.000001000.000001000.000001000.00000
     Eigenvalues --- 1000.000001000.000001000.000001000.000001000.00000
     Eigenvalues --- 1000.000001000.000001000.000001000.000001000.00000
     Eigenvalues --- 1000.000001000.000001000.000001000.000001000.00000
     Eigenvalues --- 1000.000001000.000001000.000001000.000001000.00000
     Eigenvalues --- 1000.000001000.00000
 RFO step:  Lambda=-3.31940696D-05.
 Quartic linear search produced a step of  0.12615.
 Iteration  1 RMS(Cart)=  0.00353384 RMS(Int)=  0.00002025
 Iteration  2 RMS(Cart)=  0.00001556 RMS(Int)=  0.00001179
 Iteration  3 RMS(Cart)=  0.00000000 RMS(Int)=  0.00001179
 Variable       Old X    -DE/DX   Delta X   Delta X   Delta X     New X
                                 (Linear)    (Quad)   (Total)
    R1        2.79827   0.00005  -0.00003   0.00032   0.00029   2.79856
    R2        2.79990  -0.00013   0.00006  -0.00084  -0.00078   2.79912
    R3        3.56536   0.00024  -0.00017   0.00143   0.00125   3.56662
    R4        3.56536   0.00024  -0.00017   0.00143   0.00125   3.56662
    R5        2.94149   0.00040  -0.00040   0.00190   0.00150   2.94300
    R6        2.94149   0.00040  -0.00040   0.00190   0.00150   2.94300
    R7        2.06807  -0.00024   0.00007  -0.00083  -0.00076   2.06731
    R8        2.06498   0.00014  -0.00004   0.00048   0.00044   2.06542
    R9        2.06778  -0.00024   0.00015  -0.00088  -0.00073   2.06705
   R10        2.05879   0.00004   0.00004   0.00010   0.00014   2.05893
   R11        2.06778  -0.00024   0.00015  -0.00088  -0.00073   2.06705
   R12        2.05879   0.00004   0.00004   0.00010   0.00014   2.05893
    A1        1.89052   0.00010   0.00001  -0.00028  -0.00028   1.89024
    A2        1.95775  -0.00012  -0.00028   0.00018  -0.00011   1.95764
    A3        1.95775  -0.00012  -0.00028   0.00018  -0.00011   1.95764
    A4        2.12470  -0.00010   0.00050  -0.00144  -0.00094   2.12377
    A5        2.12470  -0.00010   0.00050  -0.00144  -0.00094   2.12377
    A6        1.36230   0.00037  -0.00062   0.00365   0.00303   1.36533
    A7        1.73662   0.00038  -0.00069   0.00474   0.00404   1.74066
    A8        1.91575  -0.00017   0.00048  -0.00331  -0.00282   1.91293
    A9        2.00444  -0.00008  -0.00012   0.00103   0.00089   2.00533
   A10        1.91575  -0.00017   0.00048  -0.00331  -0.00282   1.91293
   A11        2.00444  -0.00008  -0.00012   0.00103   0.00089   2.00533
   A12        1.88280   0.00011   0.00001  -0.00037  -0.00036   1.88244
   A13        1.49959  -0.00034   0.00035  -0.00256  -0.00222   1.49738
   A14        1.93149   0.00005  -0.00038   0.00111   0.00071   1.93220
   A15        2.14197   0.00015   0.00111   0.00077   0.00184   2.14381
   A16        1.92069  -0.00009   0.00048  -0.00230  -0.00182   1.91886
   A17        2.03962  -0.00009  -0.00420  -0.00258  -0.00676   2.03285
   A18        1.89790   0.00020   0.00207   0.00377   0.00581   1.90371
   A19        1.49959  -0.00034   0.00035  -0.00256  -0.00222   1.49738
   A20        1.93149   0.00005  -0.00038   0.00111   0.00071   1.93220
   A21        2.14197   0.00015   0.00111   0.00077   0.00184   2.14381
   A22        1.92069  -0.00009   0.00048  -0.00230  -0.00182   1.91886
   A23        2.03962  -0.00009  -0.00420  -0.00258  -0.00676   2.03285
   A24        1.89790   0.00020   0.00207   0.00377   0.00581   1.90371
    D1       -1.52339  -0.00009   0.00115  -0.00498  -0.00384  -1.52722
    D2        2.84166   0.00013   0.00053  -0.00163  -0.00109   2.84057
    D3        0.56251  -0.00040  -0.00341  -0.00971  -0.01313   0.54937
    D4        2.47996   0.00000   0.00093  -0.00321  -0.00227   2.47769
    D5        0.56183   0.00022   0.00031   0.00015   0.00047   0.56229
    D6       -1.71733  -0.00030  -0.00363  -0.00793  -0.01157  -1.72890
    D7        0.38403  -0.00008   0.00064  -0.00350  -0.00286   0.38118
    D8       -1.53410   0.00014   0.00002  -0.00014  -0.00012  -1.53422
    D9        2.46993  -0.00038  -0.00392  -0.00822  -0.01215   2.45777
   D10        1.52339   0.00009  -0.00115   0.00498   0.00384   1.52722
   D11       -2.84166  -0.00013  -0.00053   0.00163   0.00109  -2.84057
   D12       -0.56251   0.00040   0.00341   0.00971   0.01313  -0.54937
   D13       -2.47996   0.00000  -0.00093   0.00321   0.00227  -2.47769
   D14       -0.56183  -0.00022  -0.00031  -0.00015  -0.00047  -0.56229
   D15        1.71733   0.00030   0.00363   0.00793   0.01157   1.72890
   D16       -0.38403   0.00008  -0.00064   0.00350   0.00286  -0.38118
   D17        1.53410  -0.00014  -0.00002   0.00014   0.00012   1.53422
   D18       -2.46993   0.00038   0.00392   0.00822   0.01215  -2.45777
   D19       -0.46729   0.00006  -0.00073   0.00370   0.00298  -0.46431
   D20        1.46173  -0.00002  -0.00098   0.00382   0.00284   1.46457
   D21       -2.64633   0.00011  -0.00106   0.00495   0.00388  -2.64245
   D22        1.54187  -0.00002  -0.00035   0.00109   0.00075   1.54261
   D23       -2.81230  -0.00009  -0.00060   0.00120   0.00060  -2.81170
   D24       -0.63717   0.00003  -0.00068   0.00234   0.00164  -0.63553
   D25       -2.61683  -0.00006  -0.00005  -0.00120  -0.00125  -2.61808
   D26       -0.68781  -0.00014  -0.00031  -0.00109  -0.00139  -0.68920
   D27        1.48731  -0.00001  -0.00039   0.00005  -0.00035   1.48697
   D28        0.46729  -0.00006   0.00073  -0.00370  -0.00298   0.46431
   D29       -1.46173   0.00002   0.00098  -0.00382  -0.00284  -1.46457
   D30        2.64633  -0.00011   0.00106  -0.00495  -0.00388   2.64245
   D31       -1.54187   0.00002   0.00035  -0.00109  -0.00075  -1.54261
   D32        2.81230   0.00009   0.00060  -0.00120  -0.00060   2.81170
   D33        0.63717  -0.00003   0.00068  -0.00234  -0.00164   0.63553
   D34        2.61683   0.00006   0.00005   0.00120   0.00125   2.61808
   D35        0.68781   0.00014   0.00031   0.00109   0.00139   0.68920
   D36       -1.48731   0.00001   0.00039  -0.00005   0.00035  -1.48697
         Item               Value     Threshold  Converged?
 Maximum Force            0.000396     0.000450     YES
 RMS     Force            0.000188     0.000300     YES
 Maximum Displacement     0.012613     0.001800     NO 
 RMS     Displacement     0.003532     0.001200     NO 
 Predicted change in Energy=-2.057578D-05
 GradGradGradGradGradGradGradGradGradGradGradGradGradGradGradGradGradGrad

                          Input orientation:                          
 ---------------------------------------------------------------------
 Center     Atomic     Atomic              Coordinates (Angstroms)
 Number     Number      Type              X           Y           Z
 ---------------------------------------------------------------------
    1          1             0       -0.963052    0.000000   -1.885290
    2         14             0       -0.967337    0.000000   -0.404360
    3          6             0        1.308784    0.000000    0.208520
    4          1             0       -2.374970    0.000000    0.056737
    5          6             0        0.310231    1.190672    0.311386
    6          6             0        0.310231   -1.190672    0.311386
    7          1             0        1.779481    0.000000   -0.779012
    8          1             0        2.103693    0.000000    0.958659
    9          1             0        0.092873    1.405638    1.361635
   10          1             0        0.602195    2.113961   -0.188007
   11          1             0        0.092873   -1.405638    1.361635
   12          1             0        0.602195   -2.113961   -0.188007
 ---------------------------------------------------------------------
                    Distance matrix (angstroms):
                    1          2          3          4          5
     1  H    0.000000
     2  Si   1.480936   0.000000
     3  C    3.089543   2.357191   0.000000
     4  H    2.401037   1.481230   3.686880   0.000000
     5  C    2.804342   1.887372   1.557366   2.948364   0.000000
     6  C    2.804342   1.887372   1.557366   2.948364   2.381344
     7  H    2.957252   2.772250   1.093972   4.237681   2.182971
     8  H    4.182460   3.359918   1.092973   4.568576   2.247925
     9  H    3.692332   2.493713   2.187220   3.125512   1.093836
    10  H    3.130431   2.641793   2.263920   3.659542   1.089541
    11  H    3.692332   2.493713   2.187220   3.125512   2.809109
    12  H    3.130431   2.641793   2.263920   3.659542   3.354883
                    6          7          8          9         10
     6  C    0.000000
     7  H    2.182971   0.000000
     8  H    2.247925   1.767658   0.000000
     9  H    2.809109   3.066404   2.486284   0.000000
    10  H    3.354883   2.490807   2.835167   1.778348   0.000000
    11  H    1.093836   3.066404   2.486284   2.811276   3.879224
    12  H    1.089541   2.490807   2.835167   3.879224   4.227922
                   11         12
    11  H    0.000000
    12  H    1.778348   0.000000
 Stoichiometry    C3H8Si
 Framework group  CS[SG(CH4Si),X(C2H4)]
 Deg. of freedom   18
 Full point group                 CS      NOp   2
 Largest Abelian subgroup         CS      NOp   2
 Largest concise Abelian subgroup CS      NOp   2
                         Standard orientation:                         
 ---------------------------------------------------------------------
 Center     Atomic     Atomic              Coordinates (Angstroms)
 Number     Number      Type              X           Y           Z
 ---------------------------------------------------------------------
    1          1             0        1.367530    1.616315    0.000000
    2         14             0        0.000000    1.047955    0.000000
    3          6             0        0.314352   -1.288181    0.000000
    4          1             0       -0.969260    2.168035    0.000000
    5          6             0       -0.166418   -0.406960    1.190672
    6          6             0       -0.166418   -0.406960   -1.190672
    7          1             0        1.407064   -1.340672    0.000000
    8          1             0       -0.070312   -2.311227    0.000000
    9          1             0       -1.219070   -0.612362    1.405638
   10          1             0        0.407008   -0.483248    2.113961
   11          1             0       -1.219070   -0.612362   -1.405638
   12          1             0        0.407008   -0.483248   -2.113961
 ---------------------------------------------------------------------
 Rotational constants (GHZ):      8.8983972      6.2890167      4.2976416
 Isotopes: H-1,Si-28,C-12,H-1,C-12,C-12,H-1,H-1,H-1,H-1,H-1,H-1
 Standard basis: 6-311++G(df,pd) (5D, 7F)
 There are   135 symmetry adapted basis functions of A'  symmetry.
 There are    85 symmetry adapted basis functions of A"  symmetry.
 Crude estimate of integral set expansion from redundant integrals=1.073.
 Integral buffers will be    131072 words long.
 Raffenetti 1 integral format.
 Two-electron integral symmetry is turned on.
   220 basis functions      318 primitive gaussians
    20 alpha electrons       20 beta electrons
       nuclear repulsion energy       169.2698380092 Hartrees.
 One-electron integrals computed using PRISM.
 NBasis=   220 RedAO= T  NBF=   135    85
 NBsUse=   220 1.00D-04 NBFU=   135    85
 Initial guess read from the read-write file:
 Initial guess orbital symmetries:
       Occupied  (A') (A') (A") (A') (A') (A') (A') (A") (A') (A")
                 (A') (A') (A') (A') (A") (A') (A") (A') (A") (A')
       Virtual   (A') (A") (A') (A') (A') (A') (A") (A") (A') (A')
                 (A') (A') (A") (A") (A') (A') (A") (A") (A') (A')
                 (A') (A") (A') (A') (A") (A') (A') (A') (A') (A')
                 (A") (A") (A') (A') (A") (A') (A') (A") (A') (A')
                 (A') (A") (A') (A') (A") (A') (A") (A') (A') (A")
                 (A') (A") (A') (A") (A') (A') (A') (A") (A") (A')
                 (A') (A') (A") (A') (A") (A") (A') (A') (A') (A')
                 (A") (A') (A") (A") (A') (A') (A") (A') (A') (A")
                 (A") (A') (A") (A') (A') (A') (A") (A') (A") (A')
                 (A') (A") (A') (A") (A") (A') (A") (A') (A") (A')
                 (A') (A') (A") (A") (A') (A") (A') (A') (A") (A')
                 (A') (A") (A') (A') (A") (A') (A') (A") (A') (A')
                 (A") (A') (A') (A") (A') (A') (A") (A") (A") (A')
                 (A') (A") (A') (A") (A") (A") (A') (A') (A') (A')
                 (A") (A") (A') (A') (A") (A") (A') (A') (A") (A')
                 (A") (A') (A") (A') (A") (A') (A') (A") (A') (A')
                 (A') (A") (A') (A") (A') (A') (A") (A') (A') (A")
                 (A') (A") (A') (A") (A') (A") (A") (A') (A') (A")
                 (A') (A") (A') (A') (A") (A") (A') (A') (A") (A')
                 (A') (A") (A') (A") (A') (A') (A') (A") (A') (A')
 Requested convergence on RMS density matrix=1.00D-08 within  64 cycles.
 Requested convergence on MAX density matrix=1.00D-06.
 SCF Done:  E(RHF) =  -407.208143969     A.U. after    8 cycles
             Convg  =    0.4273D-08             -V/T =  2.0003
             S**2   =   0.0000
 Range of M.O.s used for correlation:     9   220
 NBasis=   220 NAE=    20 NBE=    20 NFC=     8 NFV=     0
 NROrb=    212 NOA=    12 NOB=    12 NVA=   200 NVB=   200

 **** Warning!!: The largest alpha MO coefficient is  0.44140677D+02

 Fully direct method using O(ONN) memory.
 JobTyp=1 Pass  1:  I=   9 to  20.
 Spin components of T(2) and E(2):
     alpha-alpha T2 =       0.2433409079D-01 E2=     -0.6635087563D-01
     alpha-beta  T2 =       0.1633849114D+00 E2=     -0.4891454032D+00
     beta-beta   T2 =       0.2433409079D-01 E2=     -0.6635087563D-01
 ANorm=    0.1100932829D+01
 E2 =    -0.6218471544D+00 EUMP2 =    -0.40782999112298D+03
          Differentiating once with respect to electric field.
                with respect to dipole field.
          Differentiating once with respect to nuclear coordinates.
          There are   1 degrees of freedom in the 1st order CPHF.
 Petite list used in FoFDir.
 MinBra= 0 MaxBra= 3 Meth= 1.
 IRaf=       0 NMat=   1 IRICut=       1 DoRegI=T DoRafI=F ISym2E= 1 JSym2E=1.
   1 vectors were produced by pass  0.
 AX will form   1 AO Fock derivatives at one time.
   1 vectors were produced by pass  1.
   1 vectors were produced by pass  2.
   1 vectors were produced by pass  3.
   1 vectors were produced by pass  4.
   1 vectors were produced by pass  5.
   1 vectors were produced by pass  6.
   1 vectors were produced by pass  7.
   1 vectors were produced by pass  8.
   1 vectors were produced by pass  9.
   1 vectors were produced by pass 10.
   1 vectors were produced by pass 11.
 Inv2:  IOpt= 1 Iter= 1 AM= 2.97D-16 Conv= 1.00D-12.
 Inverted reduced A of dimension  12 with in-core refinement.
 ***** Axes restored to original set *****
 -------------------------------------------------------------------
 Center     Atomic                   Forces (Hartrees/Bohr)
 Number     Number              X              Y              Z
 -------------------------------------------------------------------
    1          1          -0.000087070    0.000000000   -0.000001901
    2         14           0.000418910    0.000000000   -0.000372927
    3          6           0.000191222    0.000000000   -0.000013303
    4          1           0.000013707    0.000000000    0.000137785
    5          6          -0.000242962    0.000445276    0.000333994
    6          6          -0.000242962   -0.000445276    0.000333994
    7          1          -0.000007610    0.000000000   -0.000089643
    8          1          -0.000002528    0.000000000    0.000002869
    9          1           0.000017351    0.000014628   -0.000075215
   10          1          -0.000037705   -0.000195595   -0.000090219
   11          1           0.000017351   -0.000014628   -0.000075215
   12          1          -0.000037705    0.000195595   -0.000090219
 -------------------------------------------------------------------
 Cartesian Forces:  Max     0.000445276 RMS     0.000184982

 GradGradGradGradGradGradGradGradGradGradGradGradGradGradGradGradGradGrad
 Berny optimization.
 Internal  Forces:  Max     0.000234079 RMS     0.000072566
 Search for a local minimum.
 Step number   3 out of a maximum of  82
 All quantities printed in internal units (Hartrees-Bohrs-Radians)
 Update second derivatives using information from points  1  2  3
 Trust test= 1.16D+00 RLast= 3.58D-02 DXMaxT set to 3.00D-01
     Eigenvalues ---    0.00595   0.02036   0.02618   0.03322   0.03741
     Eigenvalues ---    0.04148   0.04707   0.05065   0.05153   0.06061
     Eigenvalues ---    0.06237   0.06580   0.07123   0.07839   0.08001
     Eigenvalues ---    0.09166   0.09548   0.17727   0.17739   0.19817
     Eigenvalues ---    0.20437   0.22292   0.25581   0.25853   0.34390
     Eigenvalues ---    0.34400   0.34453   0.34521   0.34894   0.35148
     Eigenvalues --- 1000.000001000.000001000.000001000.000001000.00000
     Eigenvalues --- 1000.000001000.000001000.000001000.000001000.00000
     Eigenvalues --- 1000.000001000.000001000.000001000.000001000.00000
     Eigenvalues --- 1000.000001000.000001000.000001000.000001000.00000
     Eigenvalues --- 1000.000001000.000001000.000001000.000001000.00000
     Eigenvalues --- 1000.000001000.000001000.000001000.000001000.00000
     Eigenvalues --- 1000.000001000.000001000.000001000.000001000.00000
     Eigenvalues --- 1000.000001000.000001000.000001000.000001000.00000
     Eigenvalues --- 1000.000001000.00000
 RFO step:  Lambda=-3.32566578D-06.
 Quartic linear search produced a step of  0.18153.
 Iteration  1 RMS(Cart)=  0.00112165 RMS(Int)=  0.00000230
 Iteration  2 RMS(Cart)=  0.00000149 RMS(Int)=  0.00000170
 Iteration  3 RMS(Cart)=  0.00000000 RMS(Int)=  0.00000170
 Variable       Old X    -DE/DX   Delta X   Delta X   Delta X     New X
                                 (Linear)    (Quad)   (Total)
    R1        2.79856   0.00000   0.00005  -0.00002   0.00003   2.79859
    R2        2.79912   0.00003  -0.00014   0.00028   0.00014   2.79926
    R3        3.56662  -0.00005   0.00023  -0.00045  -0.00022   3.56639
[...]
 TRANSLATIONAL            0.889              2.981             38.741
 ROTATIONAL               0.889              2.981             24.707
 VIBRATIONAL             64.299             12.628              6.220
 VIBRATION  1             0.639              1.836              2.109
 VIBRATION  2             0.775              1.447              0.924
 VIBRATION  3             0.876              1.202              0.607
 VIBRATION  4             0.919              1.111              0.518
                       Q            LOG10(Q)             LN(Q)
 TOTAL BOT       0.227653D-33        -33.642726        -77.465240
 TOTAL V=0       0.357767D+13         12.553600         28.905733
 VIB (BOT)       0.169180D-45        -45.771650       -105.393120
 VIB (BOT)  1    0.982961D+00         -0.007464         -0.017186
 VIB (BOT)  2    0.430380D+00         -0.366148         -0.843086
 VIB (BOT)  3    0.309116D+00         -0.509878         -1.174037
 VIB (BOT)  4    0.275113D+00         -0.560490         -1.290575
 VIB (V=0)       0.265874D+01          0.424676          0.977853
 VIB (V=0)  1    0.160282D+01          0.204885          0.471765
 VIB (V=0)  2    0.115972D+01          0.064352          0.148176
 VIB (V=0)  3    0.108784D+01          0.036564          0.084192
 VIB (V=0)  4    0.107069D+01          0.029664          0.068303
 ELECTRONIC      0.100000D+01          0.000000          0.000000
 TRANSLATIONAL   0.240335D+08          7.380817         16.994959
 ROTATIONAL      0.559896D+05          4.748107         10.932921
 ***** Axes restored to original set *****
 -------------------------------------------------------------------
 Center     Atomic                   Forces (Hartrees/Bohr)
 Number     Number              X              Y              Z
 -------------------------------------------------------------------
    1          1          -0.000013850    0.000000000    0.000000440
    2         14          -0.000049391    0.000000000   -0.000016903
    3          6          -0.000039816    0.000000000   -0.000038822
    4          1           0.000002913    0.000000000   -0.000002364
    5          6           0.000044428   -0.000131166    0.000002683
    6          6           0.000044428    0.000131166    0.000002683
    7          1           0.000008438    0.000000000    0.000019454
    8          1          -0.000002169    0.000000000    0.000004764
    9          1          -0.000009279    0.000035820    0.000006798
   10          1           0.000011789    0.000029515    0.000007235
   11          1          -0.000009279   -0.000035820    0.000006798
   12          1           0.000011789   -0.000029515    0.000007235
 -------------------------------------------------------------------
 Cartesian Forces:  Max     0.000131166 RMS     0.000037203

 GradGradGradGradGradGradGradGradGradGradGradGradGradGradGradGradGradGrad
 Berny optimization.
 Internal  Forces:  Max     0.000049659 RMS     0.000014506
 Search for a local minimum.
 Step number   1 out of a maximum of  82
 All quantities printed in internal units (Hartrees-Bohrs-Radians)
 Second derivative matrix not updated -- analytic derivatives used.
     Eigenvalues ---    0.00251   0.00805   0.00920   0.02488   0.02738
     Eigenvalues ---    0.03327   0.03634   0.03937   0.03992   0.04070
     Eigenvalues ---    0.04154   0.04270   0.05236   0.05667   0.06564
     Eigenvalues ---    0.07527   0.07820   0.15947   0.16507   0.19136
     Eigenvalues ---    0.19519   0.21692   0.22440   0.24510   0.33917
     Eigenvalues ---    0.34318   0.34422   0.34519   0.35256   0.35401
     Eigenvalues --- 1000.000001000.000001000.000001000.000001000.00000
     Eigenvalues --- 1000.000001000.000001000.000001000.000001000.00000
     Eigenvalues --- 1000.000001000.000001000.000001000.000001000.00000
     Eigenvalues --- 1000.000001000.000001000.000001000.000001000.00000
     Eigenvalues --- 1000.000001000.000001000.000001000.000001000.00000
     Eigenvalues --- 1000.000001000.000001000.000001000.000001000.00000
     Eigenvalues --- 1000.000001000.000001000.000001000.000001000.00000
     Eigenvalues --- 1000.000001000.000001000.000001000.000001000.00000
     Eigenvalues --- 1000.000001000.00000
 Angle between quadratic step and forces=  70.03 degrees.
 Linear search not attempted -- first point.
 Iteration  1 RMS(Cart)=  0.00066753 RMS(Int)=  0.00000025
 Iteration  2 RMS(Cart)=  0.00000027 RMS(Int)=  0.00000005
 Variable       Old X    -DE/DX   Delta X   Delta X   Delta X     New X
                                 (Linear)    (Quad)   (Total)
    R1        2.79848   0.00000   0.00000  -0.00001  -0.00001   2.79847
    R2        2.79947   0.00000   0.00000  -0.00003  -0.00003   2.79944
    R3        3.56613   0.00001   0.00000   0.00019   0.00019   3.56631
    R4        3.56613   0.00001   0.00000   0.00019   0.00019   3.56631
    R5        2.94468  -0.00005   0.00000  -0.00030  -0.00030   2.94438
    R6        2.94468  -0.00005   0.00000  -0.00030  -0.00030   2.94438
    R7        2.06754  -0.00001   0.00000  -0.00005  -0.00005   2.06749
    R8        2.06537   0.00000   0.00000   0.00002   0.00002   2.06539
    R9        2.06652   0.00002   0.00000   0.00006   0.00006   2.06658
   R10        2.05847   0.00002   0.00000   0.00010   0.00010   2.05857
   R11        2.06652   0.00002   0.00000   0.00006   0.00006   2.06658
   R12        2.05847   0.00002   0.00000   0.00010   0.00010   2.05857
    A1        1.89059  -0.00002   0.00000  -0.00014  -0.00014   1.89045
    A2        1.95979   0.00001   0.00000   0.00050   0.00050   1.96030
    A3        1.95979   0.00001   0.00000   0.00050   0.00050   1.96030
    A4        2.12070   0.00002   0.00000  -0.00027  -0.00027   2.12043
    A5        2.12070   0.00002   0.00000  -0.00027  -0.00027   2.12043
    A6        1.36747  -0.00004   0.00000  -0.00024  -0.00024   1.36723
    A7        1.74210  -0.00001   0.00000   0.00002   0.00002   1.74211
    A8        1.91197   0.00001   0.00000   0.00013   0.00013   1.91210
    A9        2.00543   0.00000   0.00000  -0.00008  -0.00008   2.00535
   A10        1.91197   0.00001   0.00000   0.00013   0.00013   1.91210
   A11        2.00543   0.00000   0.00000  -0.00008  -0.00008   2.00535
   A12        1.88266  -0.00001   0.00000  -0.00009  -0.00009   1.88257
   A13        1.49672   0.00002   0.00000   0.00037   0.00037   1.49709
   A14        1.93461   0.00000   0.00000  -0.00007  -0.00007   1.93455
   A15        2.14077   0.00000   0.00000   0.00007   0.00007   2.14084
   A16        1.92044   0.00001   0.00000   0.00035   0.00035   1.92078
   A17        2.03080  -0.00001   0.00000  -0.00003  -0.00003   2.03077
   A18        1.90533  -0.00001   0.00000  -0.00047  -0.00047   1.90487
   A19        1.49672   0.00002   0.00000   0.00037   0.00037   1.49709
   A20        1.93461   0.00000   0.00000  -0.00007  -0.00007   1.93455
   A21        2.14077   0.00000   0.00000   0.00007   0.00007   2.14084
   A22        1.92044   0.00001   0.00000   0.00035   0.00035   1.92078
   A23        2.03080  -0.00001   0.00000  -0.00003  -0.00003   2.03077
   A24        1.90533  -0.00001   0.00000  -0.00047  -0.00047   1.90487
    D1       -1.53241   0.00000   0.00000  -0.00097  -0.00097  -1.53338
    D2        2.83381  -0.00001   0.00000  -0.00148  -0.00148   2.83233
    D3        0.54041   0.00001   0.00000  -0.00073  -0.00073   0.53968
    D4        2.47273   0.00000   0.00000  -0.00104  -0.00104   2.47169
    D5        0.55576  -0.00002   0.00000  -0.00155  -0.00155   0.55421
    D6       -1.73764   0.00000   0.00000  -0.00080  -0.00080  -1.73844
    D7        0.37893   0.00000   0.00000  -0.00055  -0.00055   0.37838
    D8       -1.53804  -0.00002   0.00000  -0.00106  -0.00106  -1.53910
    D9        2.45174   0.00000   0.00000  -0.00031  -0.00031   2.45144
   D10        1.53241   0.00000   0.00000   0.00097   0.00097   1.53338
   D11       -2.83381   0.00001   0.00000   0.00148   0.00148  -2.83233
   D12       -0.54041  -0.00001   0.00000   0.00073   0.00073  -0.53968
   D13       -2.47273   0.00000   0.00000   0.00104   0.00104  -2.47169
   D14       -0.55576   0.00002   0.00000   0.00155   0.00155  -0.55421
   D15        1.73764   0.00000   0.00000   0.00080   0.00080   1.73844
   D16       -0.37893   0.00000   0.00000   0.00055   0.00055  -0.37838
   D17        1.53804   0.00002   0.00000   0.00106   0.00106   1.53910
   D18       -2.45174   0.00000   0.00000   0.00031   0.00031  -2.45144
   D19       -0.46149  -0.00001   0.00000   0.00063   0.00063  -0.46086
   D20        1.46980   0.00000   0.00000   0.00072   0.00072   1.47052
   D21       -2.63526  -0.00002   0.00000   0.00035   0.00035  -2.63491
   D22        1.54469   0.00000   0.00000   0.00083   0.00083   1.54552
   D23       -2.80720   0.00001   0.00000   0.00092   0.00092  -2.80628
   D24       -0.62907  -0.00001   0.00000   0.00055   0.00055  -0.62852
   D25       -2.61638   0.00000   0.00000   0.00075   0.00075  -2.61563
   D26       -0.68508   0.00001   0.00000   0.00084   0.00084  -0.68425
   D27        1.49304  -0.00001   0.00000   0.00047   0.00047   1.49351
   D28        0.46149   0.00001   0.00000  -0.00063  -0.00063   0.46086
   D29       -1.46980   0.00000   0.00000  -0.00072  -0.00072  -1.47052
   D30        2.63526   0.00002   0.00000  -0.00035  -0.00035   2.63491
   D31       -1.54469   0.00000   0.00000  -0.00083  -0.00083  -1.54552
   D32        2.80720  -0.00001   0.00000  -0.00092  -0.00092   2.80628
   D33        0.62907   0.00001   0.00000  -0.00055  -0.00055   0.62852
   D34        2.61638   0.00000   0.00000  -0.00075  -0.00075   2.61563
   D35        0.68508  -0.00001   0.00000  -0.00084  -0.00084   0.68425
   D36       -1.49304   0.00001   0.00000  -0.00047  -0.00047  -1.49351
         Item               Value     Threshold  Converged?
 Maximum Force            0.000050     0.000450     YES
 RMS     Force            0.000015     0.000300     YES
 Maximum Displacement     0.002843     0.001800     NO 
 RMS     Displacement     0.000667     0.001200     YES
 Predicted change in Energy=-1.139285D-07
 GradGradGradGradGradGradGradGradGradGradGradGradGradGradGradGradGradGrad

 1\1\GINC-CASSIOPEIA\Freq\RMP2-FC\6-311++G(df,pd)\C3H8Si1\MDAKKOUR\27-O
 ct-2002\0\\#N GEOM=ALLCHECK GUESS=TCHECK RMP2(FC)/6-311++G(DF,PD) FREQ
 \\Si-CB mp2/6-311++G(df,pd) A2=free NPA FREQ 18.10.2002\\0,1\H,-0.9663
 214896,0.,-1.88609689\Si,-0.9656933974,0.,-0.4052060599\C,1.3091357283
 ,0.,0.2106087364\H,-2.371806856,0.,0.0611005039\C,0.3105091246,1.19207
 49479,0.3099592656\C,0.3105091246,-1.1920749479,0.3099592656\H,1.78222
 46438,0.,-0.7759181599\H,2.1020812379,0.,0.9627839946\H,0.0927779152,1
 .4119423132,1.3588205866\H,0.6035251664,2.1117630689,-0.1948946944\H,0
 .0927779152,-1.4119423132,1.3588205866\H,0.6035251664,-2.1117630689,-0
 .1948946944\\Version=Sun64-SVR4-Unix-G98RevA.11\State=1-A'\HF=-407.208
 1956\MP2=-407.8299952\RMSD=1.045e-09\RMSF=3.720e-05\Dipole=0.1040954,0
 .,0.1053724\DipoleDeriv=-0.2751316,0.,-0.0151853,0.,-0.2323121,0.,-0.0
 492659,0.,-0.3339452,1.2420929,0.,0.0829049,0.,1.0866352,0.,0.117963,0
 .,1.0247662,0.0198133,0.,0.0854334,0.,0.0252456,0.,-0.0968664,0.,0.105
 2553,-0.3991977,0.,-0.007526,0.,-0.2419048,0.,-0.010848,0.,-0.2536515,
 -0.3130693,-0.04439,-0.0729303,0.0993989,-0.2616968,-0.0527528,-0.0315
 034,-0.0715805,-0.1729429,-0.3130693,0.04439,-0.0729303,-0.0993989,-0.
 2616968,0.0527528,-0.0315033,0.0715805,-0.1729429,-0.0058344,0.,0.0415
 832,0.,0.0274587,0.,0.0881986,0.,-0.0916718,-0.1559838,0.,-0.0882903,0
 .,0.0272719,0.,-0.118653,0.,-0.0111149,0.0638193,-0.0019952,-0.022185,
 0.0162029,0.0268482,-0.0162285,0.0407205,-0.0508365,-0.1031144,0.03637
 06,-0.082244,0.0456554,-0.0272665,-0.1113487,0.03886,0.0255188,0.04875
 77,0.0562383,0.0638193,0.0019952,-0.022185,-0.0162029,0.0268482,0.0162
 286,0.0407204,0.0508365,-0.1031144,0.0363706,0.082244,0.0456554,0.0272
 665,-0.1113487,-0.03886,0.0255188,-0.0487577,0.0562382\Polar=65.610937
 6,0.,56.7508367,4.1920807,0.,55.0386422\PG=CS [SG(C1H4Si1),X(C2H4)]\NI
 mag=0\\0.02312371,0.,0.01972734,-0.00053369,0.,0.19338477,-0.02963547,
 0.,0.00190556,0.39119785,0.,-0.02633924,0.,0.,0.23042771,0.00210289,0.
 ,-0.18285834,0.01160862,0.,0.34604089,0.00218116,0.,0.00032069,-0.0520
 4993,0.,-0.00744671,0.55197359,0.,-0.00208023,0.,0.,0.01101164,0.,0.,0
 .35238390,0.00192788,0.,-0.00014226,-0.01792893,0.,0.00381879,0.024378
 66,0.,0.60765850,0.00134770,0.,0.00049149,-0.16606292,0.,0.04791625,-0
 .00385012,0.,-0.00321324,0.17534141,0.,0.00322957,0.,0.,-0.03068847,0.
 ,0.,-0.00312521,0.,0.,0.01896884,0.01365047,0.,-0.00355869,0.04691458,
 0.,-0.04535231,-0.00198020,0.,-0.00101104,-0.05171098,0.,0.04018178,0.
 00258671,0.00272773,0.00072935,-0.06933062,-0.06362633,-0.02230197,-0.
 11024453,0.05071258,0.00180486,-0.00231219,-0.00476885,-0.00310875,0.3
 0798792,-0.00019971,0.00205792,-0.00023214,-0.06118554,-0.08100237,-0.
 03087193,0.05650886,-0.11925817,0.00228206,0.00111585,0.00393166,0.000
 65817,0.05333422,0.55689672,-0.00799009,-0.01200712,-0.00396027,-0.023
 63063,-0.02949020,-0.05397721,0.01330664,-0.00305036,-0.07659928,0.003
 47812,0.00588600,0.00396287,-0.07158952,-0.02523291,0.52147199,0.00258
 671,-0.00272773,0.00072935,-0.06933062,0.06362633,-0.02230197,-0.11024
 453,-0.05071258,0.00180486,-0.00231219,0.00476885,-0.00310875,0.000575
 74,0.01353703,-0.00508577,0.30798792,0.00019971,0.00205792,0.00023215,
 0.06118554,-0.08100237,0.03087193,-0.05650886,-0.11925816,-0.00228206,
 -0.00111585,0.00393166,-0.00065817,-0.01353703,-0.05191422,0.00997146,
 -0.05333422,0.55689672,-0.00799009,0.01200712,-0.00396027,-0.02363063,
 0.02949020,-0.05397721,0.01330664,0.00305035,-0.07659928,0.00347812,-0
 .00588600,0.00396287,-0.00508577,-0.00997146,0.01108111,-0.07158952,0.
 02523291,0.52147198,0.00019162,0.,-0.00043096,-0.00140983,0.,0.0034980
 6,-0.09737256,0.,0.10044226,0.00000186,0.,-0.00049713,-0.00774153,0.00
 051124,0.01548743,-0.00774153,-0.00051124,0.01548743,0.10578514,0.,0.0
 0044753,0.,0.,-0.00153997,0.,0.,-0.04061039,0.,0.,0.00013478,0.,0.0123
 6197,-0.00249504,-0.02461342,-0.01236197,-0.00249504,0.02461342,0.,0.0
 5062824,-0.00018026,0.,0.00016624,0.00043845,0.,-0.00123977,0.09989172
 ,0.,-0.27064279,0.00021604,0.,0.00026529,0.00007553,-0.00000282,-0.000
 68371,0.00007553,0.00000282,-0.00068371,-0.11159993,0.,0.28767556,0.00
 023091,0.,-0.00051290,-0.00169030,0.,0.00212529,-0.18186961,0.,-0.1367
 4550,-0.00115331,0.,-0.00097096,-0.01260340,0.00204177,-0.01020780,-0.
 01260340,-0.00204177,-0.01020780,0.01056201,0.,0.01117195,0.19748440,0
 .,0.00086891,0.,0.,-0.00742208,0.,0.,-0.04513659,0.,0.,0.00227516,0.,0
 .01838402,-0.00053868,0.01650258,-0.01838402,-0.00053868,-0.01650258,0
 .,0.00070295,0.,0.,0.04757840,0.00010288,0.,0.00039548,0.00185682,0.,0
 .00008713,-0.13515116,0.,-0.18494522,0.00039402,0.,0.00035348,0.004912
 18,-0.00079074,0.00405915,0.00491218,0.00079074,0.00405915,-0.02178107
 ,0.,-0.01926956,0.14534820,0.,0.19311800,-0.00229661,-0.00370648,-0.00
 140670,0.00232073,-0.00186107,-0.01910015,-0.00700646,0.00642660,0.025
 80505,0.00067667,0.00098727,0.00162662,-0.04039597,0.00694650,0.039872
 38,-0.00114993,0.00003314,0.00100763,-0.00285729,0.00520114,0.00012058
 ,0.00163827,-0.00164207,0.00004852,0.05028643,-0.00052916,-0.00097291,
 -0.00033191,0.00323459,-0.00147184,-0.00749045,0.00359598,-0.00525283,
 -0.02156494,0.00009238,0.00059560,0.00036084,0.01131479,-0.05631264,-0
 .05593417,0.00050045,0.00067986,0.00143686,0.00189698,-0.00373247,-0.0
 0027435,-0.00052395,0.00169696,0.00019357,-0.01474372,0.05899532,-0.00
 105632,-0.00130171,0.00016719,0.00334099,0.00013309,-0.00964458,-0.001
 30489,0.00171534,-0.00019175,0.00003194,0.00034752,0.00090157,0.055794
 86,-0.05046003,-0.30275325,-0.00049488,-0.00075665,0.00039970,-0.00028
 003,-0.00007387,0.00150502,0.00005639,0.00023419,0.00120615,-0.0571032
 6,0.05588258,0.32081717,0.00099009,0.00115063,0.00005726,-0.00316481,-
 0.00667798,0.01149992,0.00774473,0.01529588,-0.01204047,-0.00117679,-0
 .00149583,-0.00122076,-0.06695359,-0.07240585,0.04620013,-0.00041860,0
 .00017123,-0.00084850,0.00171971,-0.00130084,-0.00016510,-0.00081692,0
 .00075291,-0.00034554,-0.00186579,-0.00457968,0.00104306,0.06249774,0.
 00013022,0.00098805,-0.00028553,0.00226078,-0.00525058,0.00449160,-0.0
 1019910,-0.01171056,0.00748366,-0.00000486,0.00007541,-0.00015333,-0.0
 6402291,-0.24541260,0.11671276,0.00237975,-0.00663244,-0.00269224,-0.0
 0053089,0.00134594,-0.00025760,0.00015082,-0.00059165,-0.00002112,0.00
 233616,0.00639724,-0.00520908,0.06817671,0.26211136,0.00051132,0.00100
 939,0.00009948,-0.00210791,-0.00744476,0.00337360,-0.00200824,-0.00466
 286,-0.00057696,-0.00055685,-0.00048740,-0.00030370,0.03831443,0.11045
 242,-0.10287450,0.00094968,-0.00341275,-0.00012658,-0.00002302,-0.0001
 6223,0.00070120,-0.00005663,0.00041878,-0.00013495,0.00910388,0.027087
 03,-0.01280572,-0.04422260,-0.12137159,0.11180895,-0.00229661,0.003706
 48,-0.00140670,0.00232073,0.00186106,-0.01910015,-0.00700646,-0.006426
 60,0.02580505,0.00067667,-0.00098727,0.00162662,-0.00114993,-0.0000331
 4,0.00100763,-0.04039597,-0.00694650,0.03987238,-0.00285729,-0.0052011
 4,0.00012058,0.00163827,0.00164207,0.00004852,0.00090676,0.00013102,0.
 00019083,-0.00025680,-0.00015355,-0.00016536,0.05028643,0.00052916,-0.
 00097291,0.00033191,-0.00323459,-0.00147184,0.00749045,-0.00359598,-0.
 00525283,0.02156494,-0.00009238,0.00059560,-0.00036084,-0.00050045,0.0
 0067986,-0.00143686,-0.01131479,-0.05631264,0.05593417,-0.00189698,-0.
 00373247,0.00027435,0.00052395,0.00169696,-0.00019357,-0.00013102,-0.0
 0073295,-0.00025418,0.00038969,0.00011066,-0.00038076,0.01474372,0.058
 99532,-0.00105632,0.00130171,0.00016719,0.00334099,-0.00013309,-0.0096
 4458,-0.00130489,-0.00171534,-0.00019175,0.00003194,-0.00034752,0.0009
 0157,-0.00049488,0.00075664,0.00039970,0.05579487,0.05046004,-0.302753
 25,-0.00028003,0.00007387,0.00150502,0.00005639,-0.00023419,0.00120615
 ,0.00019083,0.00025418,0.00016679,-0.00021870,0.00025720,0.00023170,-0
 .05710327,-0.05588259,0.32081718,0.00099009,-0.00115063,0.00005726,-0.
 00316481,0.00667798,0.01149992,0.00774473,-0.01529588,-0.01204047,-0.0
 0117679,0.00149583,-0.00122076,-0.00041860,-0.00017122,-0.00084850,-0.
 06695359,0.07240585,0.04620013,0.00171971,0.00130084,-0.00016510,-0.00
 081692,-0.00075291,-0.00034554,-0.00025680,-0.00038969,-0.00021870,0.0
 0170104,-0.00052313,0.00026130,-0.00186579,0.00457968,0.00104306,0.062
 49774,-0.00013022,0.00098805,0.00028553,-0.00226078,-0.00525058,-0.004
 49160,0.01019910,-0.01171056,-0.00748366,0.00000486,0.00007541,0.00015
 333,-0.00237974,-0.00663244,0.00269224,0.06402291,-0.24541260,-0.11671
 276,0.00053089,0.00134594,0.00025760,-0.00015082,-0.00059165,0.0000211
 2,0.00015355,0.00011066,-0.00025719,0.00052313,-0.00143083,-0.00104526
 ,-0.00233617,0.00639725,0.00520908,-0.06817671,0.26211136,0.00051132,-
 0.00100939,0.00009948,-0.00210791,0.00744476,0.00337360,-0.00200824,0.
 00466286,-0.00057696,-0.00055685,0.00048740,-0.00030370,0.00094968,0.0
 0341275,-0.00012658,0.03831443,-0.11045242,-0.10287450,-0.00002302,0.0
 0016223,0.00070120,-0.00005663,-0.00041878,-0.00013495,-0.00016536,0.0
 0038076,0.00023170,0.00026130,0.00104526,0.00060748,0.00910388,-0.0270
 8702,-0.01280572,-0.04422260,0.12137158,0.11180895\\0.00001385,0.,-0.0
 0000044,0.00004939,0.,0.00001690,0.00003982,0.,0.00003882,-0.00000291,
 0.,0.00000236,-0.00004443,0.00013117,-0.00000268,-0.00004443,-0.000131
 17,-0.00000268,-0.00000844,0.,-0.00001945,0.00000217,0.,-0.00000476,0.
 00000928,-0.00003582,-0.00000680,-0.00001179,-0.00002951,-0.00000723,0
 .00000928,0.00003582,-0.00000680,-0.00001179,0.00002951,-0.00000723\\\
 @


 THE ONLY DIFFERENCE BETWEEN ECCENTRICS AND JOGGERS
 IS THAT JOGGERS WEAR SWEATBANDS WHEN THEY RUN IN THE RAIN.
 Job cpu time:  0 days 18 hours 13 minutes  1.8 seconds.
 File lengths (MBytes):  RWF= 9269 Int=    0 D2E=    0 Chk=   11 Scr=    1
 Normal termination of Gaussian 98.

real 29:57:16.31
user 22:17:17.16
sys     15:14.88

