 Entering Gaussian System, Link 0=g03
 Input=znpc-f-d4h-311.com
 Output=znpc-f-d4h-311.log
 Initial command:
 /site/g03/l1.exe /usit/magnum/work/tatyans/znpc-f-d4h-311/Gau-11046.inp -scrdir=/usit/magnum/work/tatyans/znpc-f-d4h-311/
 Entering Link 1 = /site/g03/l1.exe PID=     11056.
  
 Copyright (c) 1988,1990,1992,1993,1995,1998,2003, Gaussian, Inc.
                  All Rights Reserved.
  
 This is the Gaussian(R) 03 program.  It is based on the
 the Gaussian(R) 98 system (copyright 1998, Gaussian, Inc.),
 the Gaussian(R) 94 system (copyright 1995, Gaussian, Inc.),
 the Gaussian 92(TM) system (copyright 1992, Gaussian, Inc.),
 the Gaussian 90(TM) system (copyright 1990, Gaussian, Inc.),
 the Gaussian 88(TM) system (copyright 1988, Gaussian, Inc.),
 the Gaussian 86(TM) system (copyright 1986, Carnegie Mellon
 University), and the Gaussian 82(TM) system (copyright 1983,
 Carnegie Mellon University). Gaussian is a federally registered
 trademark of Gaussian, Inc.
  
 This software contains proprietary and confidential information,
 including trade secrets, belonging to Gaussian, Inc.
  
 This software is provided under written license and may be
 used, copied, transmitted, or stored only in accord with that
 written license.
  
 The following legend is applicable only to US Government
 contracts under DFARS:
  
                    RESTRICTED RIGHTS LEGEND
  
 Use, duplication or disclosure by the US Government is subject
 to restrictions as set forth in subparagraph (c)(1)(ii) of the
 Rights in Technical Data and Computer Software clause at DFARS
 252.227-7013.
  
 Gaussian, Inc.
 Carnegie Office Park, Building 6, Pittsburgh, PA 15106 USA
  
 The following legend is applicable only to US Government
 contracts under FAR:
  
                    RESTRICTED RIGHTS LEGEND
  
 Use, reproduction and disclosure by the US Government is subject
 to restrictions as set forth in subparagraph (c) of the
 Commercial Computer Software - Restricted Rights clause at FAR
 52.227-19.
  
 Gaussian, Inc.
 Carnegie Office Park, Building 6, Pittsburgh, PA 15106 USA
  
  
 ---------------------------------------------------------------
 Warning -- This program may not be used in any manner that
 competes with the business of Gaussian, Inc. or will provide
 assistance to any competitor of Gaussian, Inc.  The licensee
 of this program is prohibited from giving any competitor of
 Gaussian, Inc. access to this program.  By using this program,
 the user acknowledges that Gaussian, Inc. is engaged in the
 business of creating and licensing software in the field of
 computational chemistry and represents and warrants to the
 licensee that it is not a competitor of Gaussian, Inc. and that
 it will not use this program in any manner prohibited above.
 ---------------------------------------------------------------
  

 Cite this work as:
 Gaussian 03, Revision B.04,
 M. J. Frisch, G. W. Trucks, H. B. Schlegel, G. E. Scuseria, 
 M. A. Robb, J. R. Cheeseman, J. A. Montgomery, Jr., T. Vreven, 
 K. N. Kudin, J. C. Burant, J. M. Millam, S. S. Iyengar, J. Tomasi, 
 V. Barone, B. Mennucci, M. Cossi, G. Scalmani, N. Rega, 
 G. A. Petersson, H. Nakatsuji, M. Hada, M. Ehara, K. Toyota, 
 R. Fukuda, J. Hasegawa, M. Ishida, T. Nakajima, Y. Honda, O. Kitao, 
 H. Nakai, M. Klene, X. Li, J. E. Knox, H. P. Hratchian, J. B. Cross, 
 C. Adamo, J. Jaramillo, R. Gomperts, R. E. Stratmann, O. Yazyev, 
 A. J. Austin, R. Cammi, C. Pomelli, J. W. Ochterski, P. Y. Ayala, 
 K. Morokuma, G. A. Voth, P. Salvador, J. J. Dannenberg, 
 V. G. Zakrzewski, S. Dapprich, A. D. Daniels, M. C. Strain, 
 O. Farkas, D. K. Malick, A. D. Rabuck, K. Raghavachari, 
 J. B. Foresman, J. V. Ortiz, Q. Cui, A. G. Baboul, S. Clifford, 
 J. Cioslowski, B. B. Stefanov, G. Liu, A. Liashenko, P. Piskorz, 
 I. Komaromi, R. L. Martin, D. J. Fox, T. Keith, M. A. Al-Laham, 
 C. Y. Peng, A. Nanayakkara, M. Challacombe, P. M. W. Gill, 
 B. Johnson, W. Chen, M. W. Wong, C. Gonzalez, and J. A. Pople, 
 Gaussian, Inc., Pittsburgh PA, 2003.
 
 **************************************************
 Gaussian 03:  HP-PARisc-HPUX-G03RevB.04 2-Jun-2003
                     7-Dec-2004 
 **************************************************
 % nproc=1
 Will use up to    1 processors via shared memory.
 % mem=500mb
 % chk=znpc-f-d4h-311
 ------------------------------------------------
 # B3LYP/6-311G** geom=checkpoint guess=read freq
 ------------------------------------------------
 1/10=4,29=2,30=1,38=1/1,3;
 2/40=1/2;
 3/5=4,6=6,7=101,11=2,16=1,25=1,30=1,74=-5/1,2,3;
 4/5=1/1;
 5/5=2,38=6/2;
 8/6=4,10=90,11=11/1;
 11/6=1,8=1,9=11,15=111,16=1/1,2,10;
 10/6=1/2;
 6/7=2,8=2,9=2,10=2,18=1,28=1/1;
 7/8=1,10=1,25=1/1,2,3,16;
 1/10=4,30=1/3;
 99//99;
 ---------------------------
 Zink(II) phthalocyanine D4h
 ---------------------------
 Redundant internal coordinates taken from checkpoint file:
 znpc-f-d4h-311.chk
 Charge =  0 Multiplicity = 1
 Zn,0,0.,0.,0.
 N,0,0.,1.9994262978,0.
 N,0,1.9994262978,0.,0.
 N,0,0.,-1.9994262978,0.
 N,0,-1.9994262978,0.,0.
 C,0,-1.1219472205,2.7821442225,0.
 C,0,1.1219472205,2.7821442225,0.
 C,0,2.7821442225,1.1219472205,0.
 C,0,2.7821442225,-1.1219472205,0.
 C,0,1.1219472205,-2.7821442225,0.
 C,0,-1.1219472205,-2.7821442225,0.
 C,0,-2.7821442225,-1.1219472205,0.
 C,0,-2.7821442225,1.1219472205,0.
 C,0,-0.7069735799,4.1815229621,0.
 C,0,0.7069735799,4.1815229621,0.
 C,0,4.1815229621,0.7069735799,0.
 C,0,4.1815229621,-0.7069735799,0.
 C,0,0.7069735799,-4.1815229621,0.
 C,0,-0.7069735799,-4.1815229621,0.
 C,0,-4.1815229621,-0.7069735799,0.
 C,0,-4.1815229621,0.7069735799,0.
 C,0,-1.4143985269,5.3768281751,0.
 C,0,1.4143985269,5.3768281751,0.
 C,0,5.3768281751,1.4143985269,0.
 C,0,5.3768281751,-1.4143985269,0.
 C,0,1.4143985269,-5.3768281751,0.
 C,0,-1.4143985269,-5.3768281751,0.
 C,0,-5.3768281751,-1.4143985269,0.
 C,0,-5.3768281751,1.4143985269,0.
 C,0,-0.6992914802,6.5698929317,0.
 C,0,0.6992914802,6.5698929317,0.
 C,0,6.5698929317,0.6992914802,0.
 C,0,6.5698929317,-0.6992914802,0.
 C,0,0.6992914802,-6.5698929317,0.
 C,0,-0.6992914802,-6.5698929317,0.
 C,0,-6.5698929317,-0.6992914802,0.
 C,0,-6.5698929317,0.6992914802,0.
 F,0,-2.745063399,5.4252951104,0.
 F,0,2.745063399,5.4252951104,0.
 F,0,5.4252951104,2.745063399,0.
 F,0,5.4252951104,-2.745063399,0.
 F,0,2.745063399,-5.4252951104,0.
 F,0,-2.745063399,-5.4252951104,0.
 F,0,-5.4252951104,-2.745063399,0.
 F,0,-5.4252951104,2.745063399,0.
 F,0,-1.34402425,7.7377040753,0.
 F,0,1.34402425,7.7377040753,0.
 F,0,7.7377040753,1.34402425,0.
 F,0,7.7377040753,-1.34402425,0.
 F,0,1.34402425,-7.7377040753,0.
 F,0,-1.34402425,-7.7377040753,0.
 F,0,-7.7377040753,-1.34402425,0.
 F,0,-7.7377040753,1.34402425,0.
 N,0,2.3873837067,2.3873837067,0.
 N,0,2.3873837067,-2.3873837067,0.
 N,0,-2.3873837067,-2.3873837067,0.
 N,0,-2.3873837067,2.3873837067,0.
 Recover connectivity data from disk.
 
 GradGradGradGradGradGradGradGradGradGradGradGradGradGradGradGradGradGrad
 Berny optimization.
 Initialization pass.
                           ----------------------------
                           !    Initial Parameters    !
                           ! (Angstroms and Degrees)  !
 --------------------------                            --------------------------
 ! Name  Definition              Value          Derivative Info.                !
 --------------------------------------------------------------------------------
 ! R1    R(1,2)                  1.9994         calculate D2E/DX2 analytically  !
 ! R2    R(1,3)                  1.9994         calculate D2E/DX2 analytically  !
 ! R3    R(1,4)                  1.9994         calculate D2E/DX2 analytically  !
 ! R4    R(1,5)                  1.9994         calculate D2E/DX2 analytically  !
 ! R5    R(2,6)                  1.368          calculate D2E/DX2 analytically  !
 ! R6    R(2,7)                  1.368          calculate D2E/DX2 analytically  !
 ! R7    R(3,8)                  1.368          calculate D2E/DX2 analytically  !
 ! R8    R(3,9)                  1.368          calculate D2E/DX2 analytically  !
 ! R9    R(4,10)                 1.368          calculate D2E/DX2 analytically  !
 ! R10   R(4,11)                 1.368          calculate D2E/DX2 analytically  !
 ! R11   R(5,12)                 1.368          calculate D2E/DX2 analytically  !
 ! R12   R(5,13)                 1.368          calculate D2E/DX2 analytically  !
 ! R13   R(6,14)                 1.4596         calculate D2E/DX2 analytically  !
 ! R14   R(6,57)                 1.3256         calculate D2E/DX2 analytically  !
 ! R15   R(7,15)                 1.4596         calculate D2E/DX2 analytically  !
 ! R16   R(7,54)                 1.3256         calculate D2E/DX2 analytically  !
 ! R17   R(8,16)                 1.4596         calculate D2E/DX2 analytically  !
 ! R18   R(8,54)                 1.3256         calculate D2E/DX2 analytically  !
 ! R19   R(9,17)                 1.4596         calculate D2E/DX2 analytically  !
 ! R20   R(9,55)                 1.3256         calculate D2E/DX2 analytically  !
 ! R21   R(10,18)                1.4596         calculate D2E/DX2 analytically  !
 ! R22   R(10,55)                1.3256         calculate D2E/DX2 analytically  !
 ! R23   R(11,19)                1.4596         calculate D2E/DX2 analytically  !
 ! R24   R(11,56)                1.3256         calculate D2E/DX2 analytically  !
 ! R25   R(12,20)                1.4596         calculate D2E/DX2 analytically  !
 ! R26   R(12,56)                1.3256         calculate D2E/DX2 analytically  !
 ! R27   R(13,21)                1.4596         calculate D2E/DX2 analytically  !
 ! R28   R(13,57)                1.3256         calculate D2E/DX2 analytically  !
 ! R29   R(14,15)                1.4139         calculate D2E/DX2 analytically  !
 ! R30   R(14,22)                1.389          calculate D2E/DX2 analytically  !
 ! R31   R(15,23)                1.389          calculate D2E/DX2 analytically  !
 ! R32   R(16,17)                1.4139         calculate D2E/DX2 analytically  !
 ! R33   R(16,24)                1.389          calculate D2E/DX2 analytically  !
 ! R34   R(17,25)                1.389          calculate D2E/DX2 analytically  !
 ! R35   R(18,19)                1.4139         calculate D2E/DX2 analytically  !
 ! R36   R(18,26)                1.389          calculate D2E/DX2 analytically  !
 ! R37   R(19,27)                1.389          calculate D2E/DX2 analytically  !
 ! R38   R(20,21)                1.4139         calculate D2E/DX2 analytically  !
 ! R39   R(20,28)                1.389          calculate D2E/DX2 analytically  !
 ! R40   R(21,29)                1.389          calculate D2E/DX2 analytically  !
 ! R41   R(22,30)                1.391          calculate D2E/DX2 analytically  !
 ! R42   R(22,38)                1.3315         calculate D2E/DX2 analytically  !
 ! R43   R(23,31)                1.391          calculate D2E/DX2 analytically  !
 ! R44   R(23,39)                1.3315         calculate D2E/DX2 analytically  !
 ! R45   R(24,32)                1.391          calculate D2E/DX2 analytically  !
 ! R46   R(24,40)                1.3315         calculate D2E/DX2 analytically  !
 ! R47   R(25,33)                1.391          calculate D2E/DX2 analytically  !
 ! R48   R(25,41)                1.3315         calculate D2E/DX2 analytically  !
 ! R49   R(26,34)                1.391          calculate D2E/DX2 analytically  !
 ! R50   R(26,42)                1.3315         calculate D2E/DX2 analytically  !
 ! R51   R(27,35)                1.391          calculate D2E/DX2 analytically  !
 ! R52   R(27,43)                1.3315         calculate D2E/DX2 analytically  !
 ! R53   R(28,36)                1.391          calculate D2E/DX2 analytically  !
 ! R54   R(28,44)                1.3315         calculate D2E/DX2 analytically  !
 ! R55   R(29,37)                1.391          calculate D2E/DX2 analytically  !
 ! R56   R(29,45)                1.3315         calculate D2E/DX2 analytically  !
 ! R57   R(30,31)                1.3986         calculate D2E/DX2 analytically  !
 ! R58   R(30,46)                1.334          calculate D2E/DX2 analytically  !
 ! R59   R(31,47)                1.334          calculate D2E/DX2 analytically  !
 ! R60   R(32,33)                1.3986         calculate D2E/DX2 analytically  !
 ! R61   R(32,48)                1.334          calculate D2E/DX2 analytically  !
 ! R62   R(33,49)                1.334          calculate D2E/DX2 analytically  !
 ! R63   R(34,35)                1.3986         calculate D2E/DX2 analytically  !
 ! R64   R(34,50)                1.334          calculate D2E/DX2 analytically  !
 ! R65   R(35,51)                1.334          calculate D2E/DX2 analytically  !
 ! R66   R(36,37)                1.3986         calculate D2E/DX2 analytically  !
 ! R67   R(36,52)                1.334          calculate D2E/DX2 analytically  !
 ! R68   R(37,53)                1.334          calculate D2E/DX2 analytically  !
 ! A1    A(2,1,3)               90.0            calculate D2E/DX2 analytically  !
 ! A2    A(2,1,5)               90.0            calculate D2E/DX2 analytically  !
 ! A3    A(3,1,4)               90.0            calculate D2E/DX2 analytically  !
 ! A4    A(4,1,5)               90.0            calculate D2E/DX2 analytically  !
 ! A5    A(1,2,6)              124.9013         calculate D2E/DX2 analytically  !
 ! A6    A(1,2,7)              124.9013         calculate D2E/DX2 analytically  !
 ! A7    A(6,2,7)              110.1975         calculate D2E/DX2 analytically  !
 ! A8    A(1,3,8)              124.9013         calculate D2E/DX2 analytically  !
 ! A9    A(1,3,9)              124.9013         calculate D2E/DX2 analytically  !
 ! A10   A(8,3,9)              110.1975         calculate D2E/DX2 analytically  !
 ! A11   A(1,4,10)             124.9013         calculate D2E/DX2 analytically  !
 ! A12   A(1,4,11)             124.9013         calculate D2E/DX2 analytically  !
 ! A13   A(10,4,11)            110.1975         calculate D2E/DX2 analytically  !
 ! A14   A(1,5,12)             124.9013         calculate D2E/DX2 analytically  !
 ! A15   A(1,5,13)             124.9013         calculate D2E/DX2 analytically  !
 ! A16   A(12,5,13)            110.1975         calculate D2E/DX2 analytically  !
 ! A17   A(2,6,14)             108.384          calculate D2E/DX2 analytically  !
 ! A18   A(2,6,57)             127.7731         calculate D2E/DX2 analytically  !
 ! A19   A(14,6,57)            123.8429         calculate D2E/DX2 analytically  !
 ! A20   A(2,7,15)             108.384          calculate D2E/DX2 analytically  !
 ! A21   A(2,7,54)             127.7731         calculate D2E/DX2 analytically  !
 ! A22   A(15,7,54)            123.8429         calculate D2E/DX2 analytically  !
 ! A23   A(3,8,16)             108.384          calculate D2E/DX2 analytically  !
 ! A24   A(3,8,54)             127.7731         calculate D2E/DX2 analytically  !
 ! A25   A(16,8,54)            123.8429         calculate D2E/DX2 analytically  !
 ! A26   A(3,9,17)             108.384          calculate D2E/DX2 analytically  !
 ! A27   A(3,9,55)             127.7731         calculate D2E/DX2 analytically  !
 ! A28   A(17,9,55)            123.8429         calculate D2E/DX2 analytically  !
 ! A29   A(4,10,18)            108.384          calculate D2E/DX2 analytically  !
 ! A30   A(4,10,55)            127.7731         calculate D2E/DX2 analytically  !
 ! A31   A(18,10,55)           123.8429         calculate D2E/DX2 analytically  !
 ! A32   A(4,11,19)            108.384          calculate D2E/DX2 analytically  !
 ! A33   A(4,11,56)            127.7731         calculate D2E/DX2 analytically  !
 ! A34   A(19,11,56)           123.8429         calculate D2E/DX2 analytically  !
 ! A35   A(5,12,20)            108.384          calculate D2E/DX2 analytically  !
 ! A36   A(5,12,56)            127.7731         calculate D2E/DX2 analytically  !
 ! A37   A(20,12,56)           123.8429         calculate D2E/DX2 analytically  !
 ! A38   A(5,13,21)            108.384          calculate D2E/DX2 analytically  !
 ! A39   A(5,13,57)            127.7731         calculate D2E/DX2 analytically  !
 ! A40   A(21,13,57)           123.8429         calculate D2E/DX2 analytically  !
 ! A41   A(6,14,15)            106.5173         calculate D2E/DX2 analytically  !
 ! A42   A(6,14,22)            132.8641         calculate D2E/DX2 analytically  !
 ! A43   A(15,14,22)           120.6186         calculate D2E/DX2 analytically  !
 ! A44   A(7,15,14)            106.5173         calculate D2E/DX2 analytically  !
 ! A45   A(7,15,23)            132.8641         calculate D2E/DX2 analytically  !
 ! A46   A(14,15,23)           120.6186         calculate D2E/DX2 analytically  !
 ! A47   A(8,16,17)            106.5173         calculate D2E/DX2 analytically  !
 ! A48   A(8,16,24)            132.8641         calculate D2E/DX2 analytically  !
 ! A49   A(17,16,24)           120.6186         calculate D2E/DX2 analytically  !
 ! A50   A(9,17,16)            106.5173         calculate D2E/DX2 analytically  !
 ! A51   A(9,17,25)            132.8641         calculate D2E/DX2 analytically  !
 ! A52   A(16,17,25)           120.6186         calculate D2E/DX2 analytically  !
 ! A53   A(10,18,19)           106.5173         calculate D2E/DX2 analytically  !
 ! A54   A(10,18,26)           132.8641         calculate D2E/DX2 analytically  !
 ! A55   A(19,18,26)           120.6186         calculate D2E/DX2 analytically  !
 ! A56   A(11,19,18)           106.5173         calculate D2E/DX2 analytically  !
 ! A57   A(11,19,27)           132.8641         calculate D2E/DX2 analytically  !
 ! A58   A(18,19,27)           120.6186         calculate D2E/DX2 analytically  !
 ! A59   A(12,20,21)           106.5173         calculate D2E/DX2 analytically  !
 ! A60   A(12,20,28)           132.8641         calculate D2E/DX2 analytically  !
 ! A61   A(21,20,28)           120.6186         calculate D2E/DX2 analytically  !
 ! A62   A(13,21,20)           106.5173         calculate D2E/DX2 analytically  !
 ! A63   A(13,21,29)           132.8641         calculate D2E/DX2 analytically  !
 ! A64   A(20,21,29)           120.6186         calculate D2E/DX2 analytically  !
 ! A65   A(14,22,30)           118.4435         calculate D2E/DX2 analytically  !
 ! A66   A(14,22,38)           122.7046         calculate D2E/DX2 analytically  !
 ! A67   A(30,22,38)           118.8519         calculate D2E/DX2 analytically  !
 ! A68   A(15,23,31)           118.4435         calculate D2E/DX2 analytically  !
 ! A69   A(15,23,39)           122.7046         calculate D2E/DX2 analytically  !
 ! A70   A(31,23,39)           118.8519         calculate D2E/DX2 analytically  !
 ! A71   A(16,24,32)           118.4435         calculate D2E/DX2 analytically  !
 ! A72   A(16,24,40)           122.7046         calculate D2E/DX2 analytically  !
 ! A73   A(32,24,40)           118.8519         calculate D2E/DX2 analytically  !
 ! A74   A(17,25,33)           118.4435         calculate D2E/DX2 analytically  !
 ! A75   A(17,25,41)           122.7046         calculate D2E/DX2 analytically  !
 ! A76   A(33,25,41)           118.8519         calculate D2E/DX2 analytically  !
 ! A77   A(18,26,34)           118.4435         calculate D2E/DX2 analytically  !
 ! A78   A(18,26,42)           122.7046         calculate D2E/DX2 analytically  !
 ! A79   A(34,26,42)           118.8519         calculate D2E/DX2 analytically  !
 ! A80   A(19,27,35)           118.4435         calculate D2E/DX2 analytically  !
 ! A81   A(19,27,43)           122.7046         calculate D2E/DX2 analytically  !
 ! A82   A(35,27,43)           118.8519         calculate D2E/DX2 analytically  !
 ! A83   A(20,28,36)           118.4435         calculate D2E/DX2 analytically  !
 ! A84   A(20,28,44)           122.7046         calculate D2E/DX2 analytically  !
 ! A85   A(36,28,44)           118.8519         calculate D2E/DX2 analytically  !
 ! A86   A(21,29,37)           118.4435         calculate D2E/DX2 analytically  !
 ! A87   A(21,29,45)           122.7046         calculate D2E/DX2 analytically  !
 ! A88   A(37,29,45)           118.8519         calculate D2E/DX2 analytically  !
 ! A89   A(22,30,31)           120.9379         calculate D2E/DX2 analytically  !
 ! A90   A(22,30,46)           120.1596         calculate D2E/DX2 analytically  !
 ! A91   A(31,30,46)           118.9025         calculate D2E/DX2 analytically  !
 ! A92   A(23,31,30)           120.9379         calculate D2E/DX2 analytically  !
 ! A93   A(23,31,47)           120.1596         calculate D2E/DX2 analytically  !
 ! A94   A(30,31,47)           118.9025         calculate D2E/DX2 analytically  !
 ! A95   A(24,32,33)           120.9379         calculate D2E/DX2 analytically  !
 ! A96   A(24,32,48)           120.1596         calculate D2E/DX2 analytically  !
 ! A97   A(33,32,48)           118.9025         calculate D2E/DX2 analytically  !
 ! A98   A(25,33,32)           120.9379         calculate D2E/DX2 analytically  !
 ! A99   A(25,33,49)           120.1596         calculate D2E/DX2 analytically  !
 ! A100  A(32,33,49)           118.9025         calculate D2E/DX2 analytically  !
 ! A101  A(26,34,35)           120.9379         calculate D2E/DX2 analytically  !
 ! A102  A(26,34,50)           120.1596         calculate D2E/DX2 analytically  !
 ! A103  A(35,34,50)           118.9025         calculate D2E/DX2 analytically  !
 ! A104  A(27,35,34)           120.9379         calculate D2E/DX2 analytically  !
 ! A105  A(27,35,51)           120.1596         calculate D2E/DX2 analytically  !
 ! A106  A(34,35,51)           118.9025         calculate D2E/DX2 analytically  !
 ! A107  A(28,36,37)           120.9379         calculate D2E/DX2 analytically  !
 ! A108  A(28,36,52)           120.1596         calculate D2E/DX2 analytically  !
 ! A109  A(37,36,52)           118.9025         calculate D2E/DX2 analytically  !
 ! A110  A(29,37,36)           120.9379         calculate D2E/DX2 analytically  !
 ! A111  A(29,37,53)           120.1596         calculate D2E/DX2 analytically  !
 ! A112  A(36,37,53)           118.9025         calculate D2E/DX2 analytically  !
 ! A113  A(7,54,8)             124.6512         calculate D2E/DX2 analytically  !
 ! A114  A(9,55,10)            124.6512         calculate D2E/DX2 analytically  !
 ! A115  A(11,56,12)           124.6512         calculate D2E/DX2 analytically  !
 ! A116  A(6,57,13)            124.6512         calculate D2E/DX2 analytically  !
 ! A117  L(2,1,4,5,-2)         180.0            calculate D2E/DX2 analytically  !
 ! A118  L(3,1,5,4,-2)         180.0            calculate D2E/DX2 analytically  !
 ! D1    D(3,1,2,6)            180.0            calculate D2E/DX2 analytically  !
 ! D2    D(3,1,2,7)              0.0            calculate D2E/DX2 analytically  !
 ! D3    D(5,1,2,6)              0.0            calculate D2E/DX2 analytically  !
 ! D4    D(5,1,2,7)            180.0            calculate D2E/DX2 analytically  !
 ! D5    D(6,2,4,10)           180.0            calculate D2E/DX2 analytically  !
 ! D6    D(6,2,4,11)             0.0            calculate D2E/DX2 analytically  !
 ! D7    D(7,2,4,10)             0.0            calculate D2E/DX2 analytically  !
 ! D8    D(7,2,4,11)           180.0            calculate D2E/DX2 analytically  !
 ! D9    D(2,1,3,8)              0.0            calculate D2E/DX2 analytically  !
 ! D10   D(2,1,3,9)            180.0            calculate D2E/DX2 analytically  !
 ! D11   D(4,1,3,8)            180.0            calculate D2E/DX2 analytically  !
 ! D12   D(4,1,3,9)              0.0            calculate D2E/DX2 analytically  !
 ! D13   D(8,3,5,12)           180.0            calculate D2E/DX2 analytically  !
 ! D14   D(8,3,5,13)             0.0            calculate D2E/DX2 analytically  !
 ! D15   D(9,3,5,12)             0.0            calculate D2E/DX2 analytically  !
 ! D16   D(9,3,5,13)           180.0            calculate D2E/DX2 analytically  !
 ! D17   D(3,1,4,10)             0.0            calculate D2E/DX2 analytically  !
 ! D18   D(3,1,4,11)           180.0            calculate D2E/DX2 analytically  !
 ! D19   D(5,1,4,10)           180.0            calculate D2E/DX2 analytically  !
 ! D20   D(5,1,4,11)             0.0            calculate D2E/DX2 analytically  !
 ! D21   D(2,1,5,12)           180.0            calculate D2E/DX2 analytically  !
 ! D22   D(2,1,5,13)             0.0            calculate D2E/DX2 analytically  !
 ! D23   D(4,1,5,12)             0.0            calculate D2E/DX2 analytically  !
 ! D24   D(4,1,5,13)           180.0            calculate D2E/DX2 analytically  !
 ! D25   D(1,2,6,14)           180.0            calculate D2E/DX2 analytically  !
 ! D26   D(1,2,6,57)             0.0            calculate D2E/DX2 analytically  !
 ! D27   D(7,2,6,14)             0.0            calculate D2E/DX2 analytically  !
 ! D28   D(7,2,6,57)           180.0            calculate D2E/DX2 analytically  !
 ! D29   D(1,2,7,15)           180.0            calculate D2E/DX2 analytically  !
 ! D30   D(1,2,7,54)             0.0            calculate D2E/DX2 analytically  !
 ! D31   D(6,2,7,15)             0.0            calculate D2E/DX2 analytically  !
 ! D32   D(6,2,7,54)           180.0            calculate D2E/DX2 analytically  !
 ! D33   D(1,3,8,16)           180.0            calculate D2E/DX2 analytically  !
 ! D34   D(1,3,8,54)             0.0            calculate D2E/DX2 analytically  !
 ! D35   D(9,3,8,16)             0.0            calculate D2E/DX2 analytically  !
 ! D36   D(9,3,8,54)           180.0            calculate D2E/DX2 analytically  !
 ! D37   D(1,3,9,17)           180.0            calculate D2E/DX2 analytically  !
 ! D38   D(1,3,9,55)             0.0            calculate D2E/DX2 analytically  !
 ! D39   D(8,3,9,17)             0.0            calculate D2E/DX2 analytically  !
 ! D40   D(8,3,9,55)           180.0            calculate D2E/DX2 analytically  !
 ! D41   D(1,4,10,18)          180.0            calculate D2E/DX2 analytically  !
 ! D42   D(1,4,10,55)            0.0            calculate D2E/DX2 analytically  !
 ! D43   D(11,4,10,18)           0.0            calculate D2E/DX2 analytically  !
 ! D44   D(11,4,10,55)         180.0            calculate D2E/DX2 analytically  !
 ! D45   D(1,4,11,19)          180.0            calculate D2E/DX2 analytically  !
 ! D46   D(1,4,11,56)            0.0            calculate D2E/DX2 analytically  !
 ! D47   D(10,4,11,19)           0.0            calculate D2E/DX2 analytically  !
 ! D48   D(10,4,11,56)         180.0            calculate D2E/DX2 analytically  !
 ! D49   D(1,5,12,20)          180.0            calculate D2E/DX2 analytically  !
 ! D50   D(1,5,12,56)            0.0            calculate D2E/DX2 analytically  !
 ! D51   D(13,5,12,20)           0.0            calculate D2E/DX2 analytically  !
 ! D52   D(13,5,12,56)         180.0            calculate D2E/DX2 analytically  !
 ! D53   D(1,5,13,21)          180.0            calculate D2E/DX2 analytically  !
 ! D54   D(1,5,13,57)            0.0            calculate D2E/DX2 analytically  !
 ! D55   D(12,5,13,21)           0.0            calculate D2E/DX2 analytically  !
 ! D56   D(12,5,13,57)         180.0            calculate D2E/DX2 analytically  !
 ! D57   D(2,6,14,15)            0.0            calculate D2E/DX2 analytically  !
 ! D58   D(2,6,14,22)          180.0            calculate D2E/DX2 analytically  !
 ! D59   D(57,6,14,15)         180.0            calculate D2E/DX2 analytically  !
 ! D60   D(57,6,14,22)           0.0            calculate D2E/DX2 analytically  !
 ! D61   D(2,6,57,13)            0.0            calculate D2E/DX2 analytically  !
 ! D62   D(14,6,57,13)         180.0            calculate D2E/DX2 analytically  !
 ! D63   D(2,7,15,14)            0.0            calculate D2E/DX2 analytically  !
 ! D64   D(2,7,15,23)          180.0            calculate D2E/DX2 analytically  !
 ! D65   D(54,7,15,14)         180.0            calculate D2E/DX2 analytically  !
 ! D66   D(54,7,15,23)           0.0            calculate D2E/DX2 analytically  !
 ! D67   D(2,7,54,8)             0.0            calculate D2E/DX2 analytically  !
 ! D68   D(15,7,54,8)          180.0            calculate D2E/DX2 analytically  !
 ! D69   D(3,8,16,17)            0.0            calculate D2E/DX2 analytically  !
 ! D70   D(3,8,16,24)          180.0            calculate D2E/DX2 analytically  !
 ! D71   D(54,8,16,17)         180.0            calculate D2E/DX2 analytically  !
 ! D72   D(54,8,16,24)           0.0            calculate D2E/DX2 analytically  !
 ! D73   D(3,8,54,7)             0.0            calculate D2E/DX2 analytically  !
 ! D74   D(16,8,54,7)          180.0            calculate D2E/DX2 analytically  !
 ! D75   D(3,9,17,16)            0.0            calculate D2E/DX2 analytically  !
 ! D76   D(3,9,17,25)          180.0            calculate D2E/DX2 analytically  !
 ! D77   D(55,9,17,16)         180.0            calculate D2E/DX2 analytically  !
 ! D78   D(55,9,17,25)           0.0            calculate D2E/DX2 analytically  !
 ! D79   D(3,9,55,10)            0.0            calculate D2E/DX2 analytically  !
 ! D80   D(17,9,55,10)         180.0            calculate D2E/DX2 analytically  !
 ! D81   D(4,10,18,19)           0.0            calculate D2E/DX2 analytically  !
 ! D82   D(4,10,18,26)         180.0            calculate D2E/DX2 analytically  !
 ! D83   D(55,10,18,19)        180.0            calculate D2E/DX2 analytically  !
 ! D84   D(55,10,18,26)          0.0            calculate D2E/DX2 analytically  !
 ! D85   D(4,10,55,9)            0.0            calculate D2E/DX2 analytically  !
 ! D86   D(18,10,55,9)         180.0            calculate D2E/DX2 analytically  !
 ! D87   D(4,11,19,18)           0.0            calculate D2E/DX2 analytically  !
 ! D88   D(4,11,19,27)         180.0            calculate D2E/DX2 analytically  !
 ! D89   D(56,11,19,18)        180.0            calculate D2E/DX2 analytically  !
 ! D90   D(56,11,19,27)          0.0            calculate D2E/DX2 analytically  !
 ! D91   D(4,11,56,12)           0.0            calculate D2E/DX2 analytically  !
 ! D92   D(19,11,56,12)        180.0            calculate D2E/DX2 analytically  !
 ! D93   D(5,12,20,21)           0.0            calculate D2E/DX2 analytically  !
 ! D94   D(5,12,20,28)         180.0            calculate D2E/DX2 analytically  !
 ! D95   D(56,12,20,21)        180.0            calculate D2E/DX2 analytically  !
 ! D96   D(56,12,20,28)          0.0            calculate D2E/DX2 analytically  !
 ! D97   D(5,12,56,11)           0.0            calculate D2E/DX2 analytically  !
 ! D98   D(20,12,56,11)        180.0            calculate D2E/DX2 analytically  !
 ! D99   D(5,13,21,20)           0.0            calculate D2E/DX2 analytically  !
 ! D100  D(5,13,21,29)         180.0            calculate D2E/DX2 analytically  !
 ! D101  D(57,13,21,20)        180.0            calculate D2E/DX2 analytically  !
 ! D102  D(57,13,21,29)          0.0            calculate D2E/DX2 analytically  !
 ! D103  D(5,13,57,6)            0.0            calculate D2E/DX2 analytically  !
 ! D104  D(21,13,57,6)         180.0            calculate D2E/DX2 analytically  !
 ! D105  D(6,14,15,7)            0.0            calculate D2E/DX2 analytically  !
 ! D106  D(6,14,15,23)         180.0            calculate D2E/DX2 analytically  !
 ! D107  D(22,14,15,7)         180.0            calculate D2E/DX2 analytically  !
 ! D108  D(22,14,15,23)          0.0            calculate D2E/DX2 analytically  !
 ! D109  D(6,14,22,30)         180.0            calculate D2E/DX2 analytically  !
 ! D110  D(6,14,22,38)           0.0            calculate D2E/DX2 analytically  !
 ! D111  D(15,14,22,30)          0.0            calculate D2E/DX2 analytically  !
 ! D112  D(15,14,22,38)        180.0            calculate D2E/DX2 analytically  !
 ! D113  D(7,15,23,31)         180.0            calculate D2E/DX2 analytically  !
 ! D114  D(7,15,23,39)           0.0            calculate D2E/DX2 analytically  !
 ! D115  D(14,15,23,31)          0.0            calculate D2E/DX2 analytically  !
 ! D116  D(14,15,23,39)        180.0            calculate D2E/DX2 analytically  !
 ! D117  D(8,16,17,9)            0.0            calculate D2E/DX2 analytically  !
 ! D118  D(8,16,17,25)         180.0            calculate D2E/DX2 analytically  !
 ! D119  D(24,16,17,9)         180.0            calculate D2E/DX2 analytically  !
 ! D120  D(24,16,17,25)          0.0            calculate D2E/DX2 analytically  !
 ! D121  D(8,16,24,32)         180.0            calculate D2E/DX2 analytically  !
 ! D122  D(8,16,24,40)           0.0            calculate D2E/DX2 analytically  !
 ! D123  D(17,16,24,32)          0.0            calculate D2E/DX2 analytically  !
 ! D124  D(17,16,24,40)        180.0            calculate D2E/DX2 analytically  !
 ! D125  D(9,17,25,33)         180.0            calculate D2E/DX2 analytically  !
 ! D126  D(9,17,25,41)           0.0            calculate D2E/DX2 analytically  !
 ! D127  D(16,17,25,33)          0.0            calculate D2E/DX2 analytically  !
 ! D128  D(16,17,25,41)        180.0            calculate D2E/DX2 analytically  !
 ! D129  D(10,18,19,11)          0.0            calculate D2E/DX2 analytically  !
 ! D130  D(10,18,19,27)        180.0            calculate D2E/DX2 analytically  !
 ! D131  D(26,18,19,11)        180.0            calculate D2E/DX2 analytically  !
 ! D132  D(26,18,19,27)          0.0            calculate D2E/DX2 analytically  !
 ! D133  D(10,18,26,34)        180.0            calculate D2E/DX2 analytically  !
 ! D134  D(10,18,26,42)          0.0            calculate D2E/DX2 analytically  !
 ! D135  D(19,18,26,34)          0.0            calculate D2E/DX2 analytically  !
 ! D136  D(19,18,26,42)        180.0            calculate D2E/DX2 analytically  !
 ! D137  D(11,19,27,35)        180.0            calculate D2E/DX2 analytically  !
 ! D138  D(11,19,27,43)          0.0            calculate D2E/DX2 analytically  !
 ! D139  D(18,19,27,35)          0.0            calculate D2E/DX2 analytically  !
 ! D140  D(18,19,27,43)        180.0            calculate D2E/DX2 analytically  !
 ! D141  D(12,20,21,13)          0.0            calculate D2E/DX2 analytically  !
 ! D142  D(12,20,21,29)        180.0            calculate D2E/DX2 analytically  !
 ! D143  D(28,20,21,13)        180.0            calculate D2E/DX2 analytically  !
 ! D144  D(28,20,21,29)          0.0            calculate D2E/DX2 analytically  !
 ! D145  D(12,20,28,36)        180.0            calculate D2E/DX2 analytically  !
 ! D146  D(12,20,28,44)          0.0            calculate D2E/DX2 analytically  !
 ! D147  D(21,20,28,36)          0.0            calculate D2E/DX2 analytically  !
 ! D148  D(21,20,28,44)        180.0            calculate D2E/DX2 analytically  !
 ! D149  D(13,21,29,37)        180.0            calculate D2E/DX2 analytically  !
 ! D150  D(13,21,29,45)          0.0            calculate D2E/DX2 analytically  !
 ! D151  D(20,21,29,37)          0.0            calculate D2E/DX2 analytically  !
 ! D152  D(20,21,29,45)        180.0            calculate D2E/DX2 analytically  !
 ! D153  D(14,22,30,31)          0.0            calculate D2E/DX2 analytically  !
 ! D154  D(14,22,30,46)        180.0            calculate D2E/DX2 analytically  !
 ! D155  D(38,22,30,31)        180.0            calculate D2E/DX2 analytically  !
 ! D156  D(38,22,30,46)          0.0            calculate D2E/DX2 analytically  !
 ! D157  D(15,23,31,30)          0.0            calculate D2E/DX2 analytically  !
 ! D158  D(15,23,31,47)        180.0            calculate D2E/DX2 analytically  !
 ! D159  D(39,23,31,30)        180.0            calculate D2E/DX2 analytically  !
 ! D160  D(39,23,31,47)          0.0            calculate D2E/DX2 analytically  !
 ! D161  D(16,24,32,33)          0.0            calculate D2E/DX2 analytically  !
 ! D162  D(16,24,32,48)        180.0            calculate D2E/DX2 analytically  !
 ! D163  D(40,24,32,33)        180.0            calculate D2E/DX2 analytically  !
 ! D164  D(40,24,32,48)          0.0            calculate D2E/DX2 analytically  !
 ! D165  D(17,25,33,32)          0.0            calculate D2E/DX2 analytically  !
 ! D166  D(17,25,33,49)        180.0            calculate D2E/DX2 analytically  !
 ! D167  D(41,25,33,32)        180.0            calculate D2E/DX2 analytically  !
 ! D168  D(41,25,33,49)          0.0            calculate D2E/DX2 analytically  !
 ! D169  D(18,26,34,35)          0.0            calculate D2E/DX2 analytically  !
 ! D170  D(18,26,34,50)        180.0            calculate D2E/DX2 analytically  !
 ! D171  D(42,26,34,35)        180.0            calculate D2E/DX2 analytically  !
 ! D172  D(42,26,34,50)          0.0            calculate D2E/DX2 analytically  !
 ! D173  D(19,27,35,34)          0.0            calculate D2E/DX2 analytically  !
 ! D174  D(19,27,35,51)        180.0            calculate D2E/DX2 analytically  !
 ! D175  D(43,27,35,34)        180.0            calculate D2E/DX2 analytically  !
 ! D176  D(43,27,35,51)          0.0            calculate D2E/DX2 analytically  !
 ! D177  D(20,28,36,37)          0.0            calculate D2E/DX2 analytically  !
 ! D178  D(20,28,36,52)        180.0            calculate D2E/DX2 analytically  !
 ! D179  D(44,28,36,37)        180.0            calculate D2E/DX2 analytically  !
 ! D180  D(44,28,36,52)          0.0            calculate D2E/DX2 analytically  !
 ! D181  D(21,29,37,36)          0.0            calculate D2E/DX2 analytically  !
 ! D182  D(21,29,37,53)        180.0            calculate D2E/DX2 analytically  !
 ! D183  D(45,29,37,36)        180.0            calculate D2E/DX2 analytically  !
 ! D184  D(45,29,37,53)          0.0            calculate D2E/DX2 analytically  !
 ! D185  D(22,30,31,23)          0.0            calculate D2E/DX2 analytically  !
 ! D186  D(22,30,31,47)        180.0            calculate D2E/DX2 analytically  !
 ! D187  D(46,30,31,23)        180.0            calculate D2E/DX2 analytically  !
 ! D188  D(46,30,31,47)          0.0            calculate D2E/DX2 analytically  !
 ! D189  D(24,32,33,25)          0.0            calculate D2E/DX2 analytically  !
 ! D190  D(24,32,33,49)        180.0            calculate D2E/DX2 analytically  !
 ! D191  D(48,32,33,25)        180.0            calculate D2E/DX2 analytically  !
 ! D192  D(48,32,33,49)          0.0            calculate D2E/DX2 analytically  !
 ! D193  D(26,34,35,27)          0.0            calculate D2E/DX2 analytically  !
 ! D194  D(26,34,35,51)        180.0            calculate D2E/DX2 analytically  !
 ! D195  D(50,34,35,27)        180.0            calculate D2E/DX2 analytically  !
 ! D196  D(50,34,35,51)          0.0            calculate D2E/DX2 analytically  !
 ! D197  D(28,36,37,29)          0.0            calculate D2E/DX2 analytically  !
 ! D198  D(28,36,37,53)        180.0            calculate D2E/DX2 analytically  !
 ! D199  D(52,36,37,29)        180.0            calculate D2E/DX2 analytically  !
 ! D200  D(52,36,37,53)          0.0            calculate D2E/DX2 analytically  !
 --------------------------------------------------------------------------------
 Trust Radius=3.00D-01 FncErr=1.00D-07 GrdErr=1.00D-07
 Number of steps in this run=   2 maximum allowed number of steps=   2.
 GradGradGradGradGradGradGradGradGradGradGradGradGradGradGradGradGradGrad
 
 Stoichiometry    C32F16N8Zn
 Framework group  D4H[O(Zn),2C2'(N.N),2C2"(N.N),SGH(C32F16)]
 Deg. of freedom    14
 Full point group                 D4H     NOp  16
 Largest Abelian subgroup         D2H     NOp   8
 Largest concise Abelian subgroup D2      NOp   4
                         Standard orientation:                         
 ---------------------------------------------------------------------
 Center     Atomic     Atomic              Coordinates (Angstroms)
 Number     Number      Type              X           Y           Z
 ---------------------------------------------------------------------
    1         30             0        0.000000    0.000000    0.000000
    2          7             0        0.000000    1.999426    0.000000
    3          7             0        1.999426    0.000000    0.000000
    4          7             0        0.000000   -1.999426    0.000000
    5          7             0       -1.999426    0.000000    0.000000
    6          6             0       -1.121947    2.782144    0.000000
    7          6             0        1.121947    2.782144    0.000000
    8          6             0        2.782144    1.121947    0.000000
    9          6             0        2.782144   -1.121947    0.000000
   10          6             0        1.121947   -2.782144    0.000000
   11          6             0       -1.121947   -2.782144    0.000000
   12          6             0       -2.782144   -1.121947    0.000000
   13          6             0       -2.782144    1.121947    0.000000
   14          6             0       -0.706974    4.181523    0.000000
   15          6             0        0.706974    4.181523    0.000000
   16          6             0        4.181523    0.706974    0.000000
   17          6             0        4.181523   -0.706974    0.000000
   18          6             0        0.706974   -4.181523    0.000000
   19          6             0       -0.706974   -4.181523    0.000000
   20          6             0       -4.181523   -0.706974    0.000000
   21          6             0       -4.181523    0.706974    0.000000
   22          6             0       -1.414399    5.376828    0.000000
   23          6             0        1.414399    5.376828    0.000000
   24          6             0        5.376828    1.414399    0.000000
   25          6             0        5.376828   -1.414399    0.000000
   26          6             0        1.414399   -5.376828    0.000000
   27          6             0       -1.414399   -5.376828    0.000000
   28          6             0       -5.376828   -1.414399    0.000000
   29          6             0       -5.376828    1.414399    0.000000
   30          6             0       -0.699291    6.569893    0.000000
   31          6             0        0.699291    6.569893    0.000000
   32          6             0        6.569893    0.699291    0.000000
   33          6             0        6.569893   -0.699291    0.000000
   34          6             0        0.699291   -6.569893    0.000000
   35          6             0       -0.699291   -6.569893    0.000000
   36          6             0       -6.569893   -0.699291    0.000000
   37          6             0       -6.569893    0.699291    0.000000
   38          9             0       -2.745063    5.425295    0.000000
   39          9             0        2.745063    5.425295    0.000000
   40          9             0        5.425295    2.745063    0.000000
   41          9             0        5.425295   -2.745063    0.000000
   42          9             0        2.745063   -5.425295    0.000000
   43          9             0       -2.745063   -5.425295    0.000000
   44          9             0       -5.425295   -2.745063    0.000000
   45          9             0       -5.425295    2.745063    0.000000
   46          9             0       -1.344024    7.737704    0.000000
   47          9             0        1.344024    7.737704    0.000000
   48          9             0        7.737704    1.344024    0.000000
   49          9             0        7.737704   -1.344024    0.000000
   50          9             0        1.344024   -7.737704    0.000000
   51          9             0       -1.344024   -7.737704    0.000000
   52          9             0       -7.737704   -1.344024    0.000000
   53          9             0       -7.737704    1.344024    0.000000
   54          7             0        2.387384    2.387384    0.000000
   55          7             0        2.387384   -2.387384    0.000000
   56          7             0       -2.387384   -2.387384    0.000000
   57          7             0       -2.387384    2.387384    0.000000
 ---------------------------------------------------------------------
 Rotational constants (GHZ):      0.0394763      0.0394763      0.0197382
 Standard basis: 6-311G(d,p) (5D, 7F)
 There are   202 symmetry adapted basis functions of AG  symmetry.
 There are   180 symmetry adapted basis functions of B1G symmetry.
 There are    73 symmetry adapted basis functions of B2G symmetry.
 There are    73 symmetry adapted basis functions of B3G symmetry.
 There are    68 symmetry adapted basis functions of AU  symmetry.
 There are    80 symmetry adapted basis functions of B1U symmetry.
 There are   189 symmetry adapted basis functions of B2U symmetry.
 There are   189 symmetry adapted basis functions of B3U symmetry.
 Integral buffers will be    131072 words long.
 Raffenetti 2 integral format.
 Two-electron integral symmetry is turned on.
  1054 basis functions,  1873 primitive gaussians,  1116 cartesian basis functions
   211 alpha electrons      211 beta electrons
       nuclear repulsion energy      8869.3689094315 Hartrees.
 NAtoms=   57 NActive=   57 NUniq=    9 SFac= 5.66D+00 NAtFMM=   60 Big=F
 One-electron integrals computed using PRISM.
 NBasis=  1054 RedAO= T  NBF=   202   180    73    73    68    80   189   189
 NBsUse=  1054 1.00D-06 NBFU=   202   180    73    73    68    80   189   189
 Initial guess read from the checkpoint file:
 znpc-f-d4h-311.chk
 Initial guess orbital symmetries:
       Occupied  (A1G) (A1G) (A2U) (EU) (EU) (A2G) (EU) (EU) (B2G)
                 (B1G) (EU) (EU) (A1G) (A2G) (EU) (EU) (B2G) (B1G)
                 (EU) (EU) (A1G) (B1G) (EU) (EU) (A1G) (B2G) (EU)
                 (EU) (A1G) (B1G) (EU) (EU) (A1G) (A2G) (EU) (EU)
                 (B2G) (B1G) (EU) (EU) (A1G) (A2G) (EU) (EU) (B2G)
                 (B2G) (EU) (EU) (A2G) (B1G) (EU) (EU) (A1G) (B1G)
                 (EU) (EU) (A1G) (A2G) (EU) (EU) (B2G) (A1G) (A2U)
                 (EU) (EU) (EU) (EU) (A1G) (B1G) (B2G) (EU) (EU)
                 (A2G) (A1G) (EU) (EU) (B1G) (B2G) (EU) (EU) (A2G)
                 (A1G) (EU) (EU) (B1G) (B2G) (EU) (EU) (A1G) (B1G)
                 (EU) (EU) (A1G) (A2G) (A1G) (EU) (EU) (B1G) (EU)
                 (EU) (B2G) (A2G) (EU) (EU) (A1G) (B1G) (EU) (EU)
                 (B2G) (B1G) (EU) (EU) (A2G) (B2G) (A1G) (EU) (EU)
                 (B1G) (EU) (EU) (A1G) (B1G) (B2G) (EU) (EU) (A2G)
                 (EU) (EU) (A1G) (B2G) (B1G) (EU) (EU) (A2G) (EU)
                 (EU) (A2G) (A2U) (EG) (EG) (B2U) (B1G) (B2G) (A1G)
                 (EG) (EG) (EU) (EU) (B1U) (EG) (EG) (A1U) (A2U)
                 (B2G) (A1G) (EG) (EG) (B2U) (A2G) (A2U) (EU) (EU)
                 (B1U) (EG) (EG) (A1U) (EG) (EG) (B1G) (B2G) (A1G)
                 (EU) (EU) (A2G) (B2U) (A1G) (EU) (EU) (B1G) (B2G)
                 (B1U) (EU) (EU) (A2G) (EU) (EU) (B1G) (A1G) (EU)
                 (EU) (EG) (EG) (A2U) (B2U) (EG) (EG) (A1G) (EU)
                 (EU) (A1U) (B1G) (A2U) (B2G) (A2U) (EG) (EG) (B2U)
                 (B1U) (EG) (EG) (A1U)
       Virtual   (EG) (EG) (B1U) (B2U) (EG) (EG) (A2U) (A1U) (EG)
                 (EG) (A1G) (EU) (EU) (A1G) (B1G) (B2U) (B1U) (B2G)
                 (EU) (EU) (EG) (EG) (A2G) (A2U) (A1G) (A1U) (B1U)
                 (EG) (EG) (A1G) (EU) (EU) (EU) (EU) (B1G) (B1G)
                 (B2G) (EU) (EU) (A2G) (B2G) (EU) (EU) (B2G) (A1G)
                 (EU) (EU) (A2G) (A1G) (EU) (EU) (B1G) (B2G) (A1G)
                 (EU) (EU) (B1G) (A2G) (EU) (EU) (EU) (EU) (A1G)
                 (B2G) (A2U) (EG) (EG) (B1G) (A2G) (B2U) (EU) (EU)
                 (A2G) (EU) (EU) (B2G) (A2U) (B2G) (EG) (EG) (B1G)
                 (EU) (EU) (B1U) (A1G) (EU) (EU) (A1G) (A2G) (B2U)
                 (B1G) (EU) (EU) (EG) (EG) (A1U) (A1G) (EU) (EU)
                 (B1G) (A1G) (EU) (EU) (B1G) (EU) (EU) (A2G) (B1U)
                 (B2G) (A2U) (A1G) (EG) (EG) (B1G) (EU) (EU) (A2G)
                 (B2G) (EU) (EU) (EG) (EG) (A1U) (B2U) (EU) (EU)
                 (A1G) (A2U) (B1U) (A2G) (B2G) (EG) (EG) (A2U)
                 (EU) (EU) (EU) (EU) (B2U) (B1G) (B2G) (A1G) (EG)
                 (EG) (B2G) (EU) (EU) (A1G) (A2G) (A2G) (EU) (EU)
                 (B2G) (A1U) (EU) (EU) (EG) (EG) (B1G) (B1U) (EU)
                 (EU) (A2G) (A1G) (B1G) (EU) (EU) (EG) (EG) (A2G)
                 (B2G) (A2U) (A1G) (EU) (EU) (EU) (EU) (B2G) (B2G)
                 (EU) (EU) (B1G) (A2G) (B2U) (A1G) (A1U) (EU) (EU)
                 (B2G) (EG) (EG) (B1G) (B1U) (EU) (EU) (A2G) (EU)
                 (EU) (B1G) (A1G) (A1G) (B1G) (EU) (EU) (A1G) (EU)
                 (EU) (B2G) (B2U) (A2U) (EU) (EU) (A2G) (EG) (EG)
                 (B2G) (EG) (EG) (A2U) (B2U) (EU) (EU) (A2G) (A2G)
                 (B2G) (EG) (EG) (B1G) (EU) (EU) (B1U) (A2G) (A1U)
                 (EU) (EU) (B2U) (A1G) (B1G) (A2U) (EG) (EG) (EU)
                 (EU) (B2G) (EU) (EU) (B1G) (A2U) (A1G) (EG) (EG)
                 (B1U) (A1U) (EG) (EG) (EU) (EU) (B2G) (B2U) (EU)
                 (EU) (B1G) (A1G) (A2G) (B1G) (A1U) (EG) (EG) (EU)
                 (EU) (B2U) (A2U) (EG) (EG) (B1U) (A1G) (EG) (EG)
                 (A1U) (B2U) (B1G) (EU) (EU) (A2G) (B1U) (EG) (EG)
                 (A1U) (A1G) (A2U) (EG) (EG) (EU) (EU) (B2G) (B2U)
                 (EU) (EU) (B1G) (A2G) (B2G) (EU) (EU) (B2G) (A2G)
                 (EU) (EU) (A2G) (A1G) (EG) (EG) (B2G) (B1U) (EU)
                 (EU) (A2U) (A1G) (B1G) (EU) (EU) (A1G) (B1G) (A1G)
                 (EU) (EU) (B2G) (B1U) (EG) (EG) (A1U) (B1G) (EU)
                 (EU) (A2U) (EU) (EU) (A2G) (A1G) (B2G) (A2G) (B1G)
                 (EU) (EU) (EG) (EG) (A2U) (EU) (EU) (B2U) (A1G)
                 (EU) (EU) (B1G) (A1G) (EG) (EG) (B1G) (A2G) (EU)
                 (EU) (A1G) (B2G) (EU) (EU) (EU) (EU) (B1G) (B1U)
                 (A2G) (EG) (EG) (A1U) (B2G) (EU) (EU) (A2G) (A1G)
                 (A2U) (EG) (EG) (B1G) (B2U) (B2G) (EU) (EU) (EU)
                 (EU) (A1G) (A2U) (EG) (EG) (A1U) (EG) (EG) (B1U)
                 (B2G) (EU) (EU) (B2U) (A1G) (A1G) (EU) (EU) (B1G)
                 (A2G) (B2G) (B1G) (EU) (EU) (A2G) (EU) (EU) (B2G)
                 (EU) (EU) (B1U) (A2G) (EU) (EU) (B1G) (A1G) (B2G)
                 (EG) (EG) (A1U) (A2G) (A1G) (EU) (EU) (B1G) (B2G)
                 (EU) (EU) (B2U) (A2G) (EG) (EG) (B1G) (EU) (EU)
                 (A1G) (EU) (EU) (B2G) (B1G) (A2G) (EU) (EU) (A2U)
                 (EU) (EU) (B1U) (A2G) (B2G) (A1G) (EG) (EG) (A1U)
                 (B1G) (EU) (EU) (B2G) (EU) (EU) (A1U) (A2G) (EG)
                 (EG) (B1U) (B2G) (EG) (EG) (A2U) (A1G) (EU) (EU)
                 (B1U) (B2U) (EU) (EU) (EG) (EG) (A2G) (A2U) (B1G)
                 (EU) (EU) (EU) (EU) (B2G) (A1G) (A2G) (A1U) (B2U)
                 (EG) (EG) (A2U) (B1G) (EG) (EG) (B1U) (A1G) (EU)
                 (EU) (A1U) (B2U) (B2G) (EG) (EG) (EG) (EG) (B1U)
                 (A2U) (B2U) (EG) (EG) (A1U) (EU) (EU) (A2U) (B2G)
                 (EG) (EG) (A2G) (A1G) (B1G) (EU) (EU) (B1U) (B2U)
                 (EG) (EG) (A1G) (EU) (EU) (A1U) (B1G) (EU) (EU)
                 (B2G) (A2G) (B1G) (EU) (EU) (B2G) (B1U) (A2G)
                 (EG) (EG) (EU) (EU) (A1G) (EU) (EU) (B1G) (A1U)
                 (B1G) (A1G) (EU) (EU) (A2G) (EU) (EU) (A1G) (B2G)
                 (A1G) (EU) (EU) (B2G) (EU) (EU) (B1G) (A2G) (B2G)
                 (A1G) (EU) (EU) (B1G) (EU) (EU) (A2G) (B2G) (EU)
                 (EU) (A2G) (EU) (EU) (B2G) (A1G) (EU) (EU) (B1G)
                 (B1G) (EU) (EU) (B2G) (A1G) (A2G) (A2U) (EU) (EU)
                 (EG) (EG) (B2U) (A2U) (B1U) (EG) (EG) (A1U) (EG)
                 (EG) (A2U) (B2U) (B1U) (EG) (EG) (A1U) (EU) (EU)
                 (EG) (EG) (A1G) (B1G) (A2G) (B2G) (A2U) (EU) (EU)
                 (A2G) (B2U) (A1G) (EU) (EU) (B1G) (EG) (EG) (B1U)
                 (B2U) (EG) (EG) (A2U) (B2G) (EU) (EU) (A2G) (A1U)
                 (EG) (EG) (B1U) (EU) (EU) (B1G) (A1G) (B2U) (A2U)
                 (EG) (EG) (B1U) (EG) (EG) (A1U) (B2G) (A1G) (EU)
                 (EU) (A2G) (EU) (EU) (EU) (EU) (B1G) (A1G) (B2G)
                 (A1G) (EU) (EU) (B1G) (A2G) (EU) (EU) (B2G) (A2G)
                 (EU) (EU) (B1U) (A2U) (A1G) (B2U) (EU) (EU) (B2G)
                 (EU) (EU) (A1G) (B1G) (EU) (EU) (B1G) (EU) (EU)
                 (A1G) (B2G) (EU) (EU) (A2G) (A1G) (EU) (EU) (B1G)
                 (B2G) (EU) (EU) (A2G) (B2G) (EU) (EU) (A2G) (EU)
                 (EU) (A2G) (B2G) (B1G) (EU) (EU) (A2G) (A2U) (EG)
                 (EG) (B2U) (B1U) (EG) (EG) (A1U) (A2U) (EG) (EG)
                 (B2U) (B1G) (EU) (EU) (A1G) (B1U) (EG) (EG) (A1U)
                 (B2G) (EU) (EU) (A2G) (B1G) (EU) (EU) (A1G) (A1G)
                 (EU) (EU) (B1G) (B2G) (EU) (EU) (A2G) (B2G) (EU)
                 (EU) (A2G) (EU) (EU) (B1G) (A1G) (B2G) (EU) (EU)
                 (A2G) (EG) (EG) (B2G) (A1G) (B1G) (A2U) (EU) (EU)
                 (A1G) (EU) (EU) (B1G) (B2G) (EU) (EU) (A1G) (A2G)
                 (EU) (EU) (B1G) (EU) (EU) (A1G) (B1G) (A2G) (EU)
                 (EU) (B2G) (B2G) (EU) (EU) (A2G) (A1G) (EU) (EU)
                 (B1G) (B2G) (EU) (EU) (A2G) (A1G) (A1G) (EU) (EU)
                 (B1G) (B2G) (EU) (EU) (A1G) (A2U) (EU) (EU) (A1G)
                 (EU) (EU) (B1G) (B2G) (EU) (EU) (A2G) (A1G) (EU)
                 (EU) (B1G) (B2G) (EU) (EU) (A2G) (A1G) (A1G)
 Requested convergence on RMS density matrix=1.00D-08 within 128 cycles.
 Requested convergence on MAX density matrix=1.00D-06.
 Requested convergence on             energy=1.00D-06.
 No special actions if energy rises.
 SCF Done:  E(RB+HF-LYP) =  -5035.00579141     A.U. after    1 cycles
             Convg  =    0.7130D-08             -V/T =  2.0021
             S**2   =   0.0000
 Range of M.O.s used for correlation:     1  1054
 NBasis=  1054 NAE=   211 NBE=   211 NFC=     0 NFV=     0
 NROrb=   1054 NOA=   211 NOB=   211 NVA=   843 NVB=   843

 **** Warning!!: The largest alpha MO coefficient is  0.14122396D+02


 **** Warning!!: The smallest alpha delta epsilon is  0.76682335D-01

 Symmetrizing basis deriv contribution to polar:
 IMax=3 JMax=2 DiffMx= 0.00D+00
 G2DrvN: will do   12 centers at a time, making    5 passes doing MaxLOS=3.
 FoFDir/FoFCou used for L=0 through L=3.
          Differentiating once with respect to electric field.
                with respect to dipole field.
          Differentiating once with respect to nuclear coordinates.
 Integrals replicated using symmetry in FoFDir.
 MinBra= 0 MaxBra= 3 Meth= 1.
 IRaf=       0 NMat=  30 IRICut=      30 DoRegI=T DoRafI=T ISym2E= 2 JSym2E=2.
 Raff turned off since only 34.63% of shell-pairs survive.
          There are  30 degrees of freedom in the 1st order CPHF.
    30 vectors were produced by pass  0.
 AX will form  30 AO Fock derivatives at one time.
    30 vectors were produced by pass  1.
    30 vectors were produced by pass  2.
    30 vectors were produced by pass  3.
    30 vectors were produced by pass  4.
    30 vectors were produced by pass  5.
    30 vectors were produced by pass  6.
    30 vectors were produced by pass  7.
    27 vectors were produced by pass  8.
    23 vectors were produced by pass  9.
    19 vectors were produced by pass 10.
    13 vectors were produced by pass 11.
     5 vectors were produced by pass 12.
     2 vectors were produced by pass 13.
     2 vectors were produced by pass 14.
     2 vectors were produced by pass 15.
 Inv2:  IOpt= 1 Iter= 1 AM= 2.59D-15 Conv= 1.00D-12.
 Inverted reduced A of dimension  333 with in-core refinement.
 Isotropic polarizability for W=    0.000000      647.18 Bohr**3.
 End of Minotr Frequency-dependent properties file   721 does not exist.

 **********************************************************************

            Population analysis using the SCF density.

 **********************************************************************

 Orbital symmetries:
       Occupied  (A1G) (A1G) (A2U) (EU) (EU) (A2G) (EU) (EU) (B2G)
                 (B1G) (EU) (EU) (A1G) (A2G) (EU) (EU) (B2G) (B1G)
                 (EU) (EU) (A1G) (B1G) (EU) (EU) (A1G) (B2G) (EU)
                 (EU) (A1G) (B1G) (EU) (EU) (A1G) (A2G) (EU) (EU)
                 (B2G) (B1G) (EU) (EU) (A1G) (A2G) (EU) (EU) (B2G)
                 (B2G) (EU) (EU) (A2G) (B1G) (EU) (EU) (A1G) (B1G)
                 (EU) (EU) (A1G) (A2G) (EU) (EU) (B2G) (A1G) (A2U)
                 (EU) (EU) (EU) (EU) (A1G) (B1G) (B2G) (EU) (EU)
                 (A2G) (A1G) (EU) (EU) (B1G) (B2G) (EU) (EU) (A2G)
                 (A1G) (EU) (EU) (B1G) (B2G) (EU) (EU) (A1G) (B1G)
                 (EU) (EU) (A1G) (A2G) (A1G) (EU) (EU) (B1G) (EU)
                 (EU) (B2G) (A2G) (EU) (EU) (A1G) (B1G) (EU) (EU)
                 (B2G) (B1G) (EU) (EU) (A2G) (B2G) (A1G) (EU) (EU)
                 (B1G) (EU) (EU) (A1G) (B1G) (B2G) (EU) (EU) (A2G)
                 (EU) (EU) (A1G) (B2G) (B1G) (EU) (EU) (A2G) (EU)
                 (EU) (A2G) (A2U) (EG) (EG) (B2U) (B1G) (B2G) (A1G)
                 (EG) (EG) (EU) (EU) (B1U) (EG) (EG) (A1U) (A2U)
                 (B2G) (A1G) (EG) (EG) (B2U) (A2G) (A2U) (EU) (EU)
                 (B1U) (EG) (EG) (A1U) (EG) (EG) (B1G) (B2G) (A1G)
                 (EU) (EU) (A2G) (B2U) (A1G) (EU) (EU) (B1G) (B2G)
                 (B1U) (EU) (EU) (A2G) (EU) (EU) (B1G) (A1G) (EU)
                 (EU) (EG) (EG) (A2U) (B2U) (EG) (EG) (A1G) (EU)
                 (EU) (A1U) (B1G) (A2U) (B2G) (A2U) (EG) (EG) (B2U)
                 (B1U) (EG) (EG) (A1U)
       Virtual   (EG) (EG) (B1U) (B2U) (EG) (EG) (A2U) (A1U) (EG)
                 (EG) (A1G) (EU) (EU) (A1G) (B1G) (B2U) (B1U) (B2G)
                 (EU) (EU) (EG) (EG) (A2G) (A2U) (A1G) (A1U) (B1U)
                 (EG) (EG) (A1G) (EU) (EU) (EU) (EU) (B1G) (B1G)
                 (B2G) (EU) (EU) (A2G) (B2G) (EU) (EU) (B2G) (A1G)
                 (EU) (EU) (A2G) (A1G) (EU) (EU) (B1G) (B2G) (A1G)
                 (EU) (EU) (B1G) (A2G) (EU) (EU) (EU) (EU) (A1G)
                 (B2G) (A2U) (EG) (EG) (B1G) (A2G) (B2U) (EU) (EU)
                 (A2G) (EU) (EU) (B2G) (A2U) (B2G) (EG) (EG) (B1G)
                 (EU) (EU) (B1U) (A1G) (EU) (EU) (A1G) (A2G) (B2U)
                 (B1G) (EU) (EU) (EG) (EG) (A1U) (A1G) (EU) (EU)
                 (B1G) (A1G) (EU) (EU) (B1G) (EU) (EU) (A2G) (B1U)
                 (B2G) (A2U) (A1G) (EG) (EG) (B1G) (EU) (EU) (A2G)
                 (B2G) (EU) (EU) (EG) (EG) (A1U) (B2U) (EU) (EU)
                 (A1G) (A2U) (B1U) (A2G) (B2G) (EG) (EG) (A2U)
                 (EU) (EU) (EU) (EU) (B2U) (B1G) (B2G) (A1G) (EG)
                 (EG) (B2G) (EU) (EU) (A1G) (A2G) (A2G) (EU) (EU)
                 (B2G) (A1U) (EU) (EU) (EG) (EG) (B1G) (B1U) (EU)
                 (EU) (A2G) (A1G) (B1G) (EU) (EU) (EG) (EG) (A2G)
                 (B2G) (A2U) (A1G) (EU) (EU) (EU) (EU) (B2G) (B2G)
                 (EU) (EU) (B1G) (A2G) (B2U) (A1G) (A1U) (EU) (EU)
                 (B2G) (EG) (EG) (B1G) (B1U) (EU) (EU) (A2G) (EU)
                 (EU) (B1G) (A1G) (A1G) (B1G) (EU) (EU) (A1G) (EU)
                 (EU) (B2G) (B2U) (A2U) (EU) (EU) (A2G) (EG) (EG)
                 (B2G) (EG) (EG) (A2U) (B2U) (EU) (EU) (A2G) (A2G)
                 (B2G) (EG) (EG) (B1G) (EU) (EU) (B1U) (A2G) (A1U)
                 (EU) (EU) (B2U) (A1G) (B1G) (A2U) (EG) (EG) (EU)
                 (EU) (B2G) (EU) (EU) (B1G) (A2U) (A1G) (EG) (EG)
                 (B1U) (A1U) (EG) (EG) (EU) (EU) (B2G) (B2U) (EU)
                 (EU) (B1G) (A1G) (A2G) (B1G) (A1U) (EG) (EG) (EU)
                 (EU) (B2U) (A2U) (EG) (EG) (B1U) (A1G) (EG) (EG)
                 (A1U) (B2U) (B1G) (EU) (EU) (A2G) (B1U) (EG) (EG)
                 (A1U) (A1G) (A2U) (EG) (EG) (EU) (EU) (B2G) (B2U)
                 (EU) (EU) (B1G) (A2G) (B2G) (EU) (EU) (B2G) (A2G)
                 (EU) (EU) (A2G) (A1G) (EG) (EG) (B2G) (B1U) (EU)
                 (EU) (A2U) (A1G) (B1G) (EU) (EU) (A1G) (B1G) (A1G)
                 (EU) (EU) (B2G) (B1U) (EG) (EG) (A1U) (B1G) (EU)
                 (EU) (A2U) (EU) (EU) (A2G) (A1G) (B2G) (A2G) (B1G)
                 (EU) (EU) (EG) (EG) (A2U) (EU) (EU) (B2U) (A1G)
                 (EU) (EU) (B1G) (A1G) (EG) (EG) (B1G) (A2G) (EU)
                 (EU) (A1G) (B2G) (EU) (EU) (EU) (EU) (B1G) (B1U)
                 (A2G) (EG) (EG) (A1U) (B2G) (EU) (EU) (A2G) (A1G)
                 (A2U) (EG) (EG) (B1G) (B2U) (B2G) (EU) (EU) (EU)
                 (EU) (A1G) (A2U) (EG) (EG) (A1U) (EG) (EG) (B1U)
                 (B2G) (EU) (EU) (B2U) (A1G) (A1G) (EU) (EU) (B1G)
                 (A2G) (B2G) (B1G) (EU) (EU) (A2G) (EU) (EU) (B2G)
                 (EU) (EU) (B1U) (A2G) (EU) (EU) (B1G) (A1G) (B2G)
                 (EG) (EG) (A1U) (A2G) (A1G) (EU) (EU) (B1G) (B2G)
                 (EU) (EU) (B2U) (A2G) (EG) (EG) (B1G) (EU) (EU)
                 (A1G) (EU) (EU) (B2G) (B1G) (A2G) (EU) (EU) (A2U)
                 (EU) (EU) (B1U) (A2G) (B2G) (A1G) (EG) (EG) (A1U)
                 (B1G) (EU) (EU) (B2G) (EU) (EU) (A1U) (A2G) (EG)
                 (EG) (B1U) (B2G) (EG) (EG) (A2U) (A1G) (EU) (EU)
                 (B1U) (B2U) (EU) (EU) (EG) (EG) (A2G) (A2U) (B1G)
                 (EU) (EU) (EU) (EU) (B2G) (A1G) (A2G) (A1U) (B2U)
                 (EG) (EG) (A2U) (B1G) (EG) (EG) (B1U) (A1G) (EU)
                 (EU) (A1U) (B2U) (B2G) (EG) (EG) (EG) (EG) (B1U)
                 (A2U) (B2U) (EG) (EG) (A1U) (EU) (EU) (A2U) (B2G)
                 (EG) (EG) (A2G) (A1G) (B1G) (EU) (EU) (B1U) (B2U)
                 (EG) (EG) (A1G) (EU) (EU) (A1U) (B1G) (EU) (EU)
                 (B2G) (A2G) (B1G) (EU) (EU) (B2G) (B1U) (A2G)
                 (EG) (EG) (EU) (EU) (A1G) (EU) (EU) (B1G) (A1U)
                 (B1G) (A1G) (EU) (EU) (A2G) (EU) (EU) (A1G) (B2G)
                 (A1G) (EU) (EU) (B2G) (EU) (EU) (B1G) (A2G) (B2G)
                 (A1G) (EU) (EU) (B1G) (EU) (EU) (A2G) (B2G) (EU)
                 (EU) (A2G) (EU) (EU) (B2G) (A1G) (EU) (EU) (B1G)
                 (B1G) (EU) (EU) (B2G) (A1G) (A2G) (A2U) (EU) (EU)
                 (EG) (EG) (B2U) (A2U) (B1U) (EG) (EG) (A1U) (EG)
                 (EG) (A2U) (B2U) (B1U) (EG) (EG) (A1U) (EU) (EU)
                 (EG) (EG) (A1G) (B1G) (A2G) (B2G) (A2U) (EU) (EU)
                 (A2G) (B2U) (A1G) (EU) (EU) (B1G) (EG) (EG) (B1U)
                 (B2U) (EG) (EG) (A2U) (B2G) (EU) (EU) (A2G) (A1U)
                 (EG) (EG) (B1U) (EU) (EU) (B1G) (A1G) (B2U) (A2U)
                 (EG) (EG) (B1U) (EG) (EG) (A1U) (B2G) (A1G) (EU)
                 (EU) (A2G) (EU) (EU) (EU) (EU) (B1G) (A1G) (B2G)
                 (A1G) (EU) (EU) (B1G) (A2G) (EU) (EU) (B2G) (A2G)
                 (EU) (EU) (B1U) (A2U) (A1G) (B2U) (EU) (EU) (B2G)
                 (EU) (EU) (A1G) (B1G) (EU) (EU) (B1G) (EU) (EU)
                 (A1G) (B2G) (EU) (EU) (A2G) (A1G) (EU) (EU) (B1G)
                 (B2G) (EU) (EU) (A2G) (B2G) (EU) (EU) (A2G) (EU)
                 (EU) (A2G) (B2G) (B1G) (EU) (EU) (A2G) (A2U) (EG)
                 (EG) (B2U) (B1U) (EG) (EG) (A1U) (A2U) (EG) (EG)
                 (B2U) (B1G) (EU) (EU) (A1G) (B1U) (EG) (EG) (A1U)
                 (B2G) (EU) (EU) (A2G) (B1G) (EU) (EU) (A1G) (A1G)
                 (EU) (EU) (B1G) (B2G) (EU) (EU) (A2G) (B2G) (EU)
                 (EU) (A2G) (EU) (EU) (B1G) (A1G) (B2G) (EU) (EU)
                 (A2G) (EG) (EG) (B2G) (A1G) (B1G) (A2U) (EU) (EU)
                 (A1G) (EU) (EU) (B1G) (B2G) (EU) (EU) (A1G) (A2G)
                 (EU) (EU) (B1G) (EU) (EU) (A1G) (B1G) (A2G) (EU)
                 (EU) (B2G) (B2G) (EU) (EU) (A2G) (A1G) (EU) (EU)
                 (B1G) (B2G) (EU) (EU) (A2G) (A1G) (A1G) (EU) (EU)
                 (B1G) (B2G) (EU) (EU) (A1G) (A2U) (EU) (EU) (A1G)
                 (EU) (EU) (B1G) (B2G) (EU) (EU) (A2G) (A1G) (EU)
                 (EU) (B1G) (B2G) (EU) (EU) (A2G) (A1G) (A1G)
 The electronic state is 1-A1G.
 Alpha  occ. eigenvalues -- -347.25285 -42.18893 -37.19599 -37.18887 -37.18887
 Alpha  occ. eigenvalues --  -24.72417 -24.72417 -24.72417 -24.72417 -24.72416
 Alpha  occ. eigenvalues --  -24.72416 -24.72416 -24.72416 -24.71918 -24.71918
 Alpha  occ. eigenvalues --  -24.71918 -24.71918 -24.71918 -24.71918 -24.71918
 Alpha  occ. eigenvalues --  -24.71918 -14.36365 -14.36365 -14.36365 -14.36365
 Alpha  occ. eigenvalues --  -14.35164 -14.35164 -14.35164 -14.35164 -10.30959
 Alpha  occ. eigenvalues --  -10.30959 -10.30959 -10.30958 -10.30924 -10.30924
 Alpha  occ. eigenvalues --  -10.30924 -10.30924 -10.30884 -10.30884 -10.30884
 Alpha  occ. eigenvalues --  -10.30884 -10.30869 -10.30869 -10.30869 -10.30869
 Alpha  occ. eigenvalues --  -10.29353 -10.29353 -10.29353 -10.29353 -10.29352
 Alpha  occ. eigenvalues --  -10.29351 -10.29351 -10.29351 -10.23356 -10.23356
 Alpha  occ. eigenvalues --  -10.23356 -10.23356 -10.23309 -10.23309 -10.23309
 Alpha  occ. eigenvalues --  -10.23309  -4.83995  -3.24204  -3.23040  -3.23040
 Alpha  occ. eigenvalues --   -1.28175  -1.28175  -1.28175  -1.28175  -1.27255
 Alpha  occ. eigenvalues --   -1.27253  -1.27253  -1.27251  -1.26364  -1.26361
 Alpha  occ. eigenvalues --   -1.26361  -1.26357  -1.25863  -1.25862  -1.25862
 Alpha  occ. eigenvalues --   -1.25860  -1.05206  -1.03787  -1.03787  -1.01114
 Alpha  occ. eigenvalues --   -0.98687  -0.94774  -0.94774  -0.92371  -0.91462
 Alpha  occ. eigenvalues --   -0.91394  -0.91394  -0.90662  -0.82077  -0.81650
 Alpha  occ. eigenvalues --   -0.81376  -0.81376  -0.81075  -0.80731  -0.80731
 Alpha  occ. eigenvalues --   -0.80408  -0.77289  -0.74511  -0.74511  -0.69990
 Alpha  occ. eigenvalues --   -0.69942  -0.69575  -0.69575  -0.69544  -0.67224
 Alpha  occ. eigenvalues --   -0.66993  -0.66993  -0.66628  -0.64192  -0.63350
 Alpha  occ. eigenvalues --   -0.62526  -0.62526  -0.61975  -0.60438  -0.60438
 Alpha  occ. eigenvalues --   -0.60427  -0.60063  -0.59936  -0.59278  -0.59278
 Alpha  occ. eigenvalues --   -0.58714  -0.58126  -0.58126  -0.57080  -0.56661
 Alpha  occ. eigenvalues --   -0.56630  -0.56593  -0.56593  -0.56446  -0.55993
 Alpha  occ. eigenvalues --   -0.55993  -0.54412  -0.54103  -0.54050  -0.54050
 Alpha  occ. eigenvalues --   -0.53978  -0.53128  -0.53125  -0.52830  -0.52427
 Alpha  occ. eigenvalues --   -0.52427  -0.51705  -0.51705  -0.50988  -0.50970
 Alpha  occ. eigenvalues --   -0.50970  -0.50949  -0.50585  -0.50210  -0.50128
 Alpha  occ. eigenvalues --   -0.49612  -0.49612  -0.49410  -0.48838  -0.48607
 Alpha  occ. eigenvalues --   -0.48173  -0.48173  -0.48125  -0.48122  -0.48122
 Alpha  occ. eigenvalues --   -0.48104  -0.47426  -0.47426  -0.47143  -0.45481
 Alpha  occ. eigenvalues --   -0.45471  -0.45465  -0.45465  -0.45435  -0.45078
 Alpha  occ. eigenvalues --   -0.44116  -0.43807  -0.43807  -0.42886  -0.42616
 Alpha  occ. eigenvalues --   -0.42277  -0.42180  -0.42180  -0.41478  -0.41179
 Alpha  occ. eigenvalues --   -0.41179  -0.40744  -0.40684  -0.39073  -0.39073
 Alpha  occ. eigenvalues --   -0.38513  -0.38513  -0.37857  -0.36608  -0.35255
 Alpha  occ. eigenvalues --   -0.35255  -0.33922  -0.31282  -0.31282  -0.30494
 Alpha  occ. eigenvalues --   -0.29628  -0.29555  -0.29413  -0.28775  -0.28743
 Alpha  occ. eigenvalues --   -0.28743  -0.28573  -0.28189  -0.28162  -0.28162
 Alpha  occ. eigenvalues --   -0.22045
 Alpha virt. eigenvalues --   -0.14377  -0.14377  -0.08334  -0.06701  -0.05397
 Alpha virt. eigenvalues --   -0.05397  -0.05162  -0.01558  -0.01148  -0.01148
 Alpha virt. eigenvalues --   -0.00857   0.00770   0.00770   0.00839   0.01038
 Alpha virt. eigenvalues --    0.01378   0.02432   0.06927   0.07120   0.07120
 Alpha virt. eigenvalues --    0.07555   0.07555   0.07684   0.09703   0.10489
 Alpha virt. eigenvalues --    0.14493   0.14814   0.14896   0.14896   0.14994
 Alpha virt. eigenvalues --    0.15346   0.15346   0.15919   0.15919   0.17319
 Alpha virt. eigenvalues --    0.18042   0.18294   0.18872   0.18872   0.19203
 Alpha virt. eigenvalues --    0.19915   0.21760   0.21760   0.21988   0.22146
 Alpha virt. eigenvalues --    0.23448   0.23448   0.23823   0.24059   0.24213
 Alpha virt. eigenvalues --    0.24213   0.24400   0.25394   0.26202   0.27096
 Alpha virt. eigenvalues --    0.27096   0.27201   0.28778   0.28967   0.28967
 Alpha virt. eigenvalues --    0.31167   0.31167   0.31576   0.31621   0.31657
 Alpha virt. eigenvalues --    0.32279   0.32279   0.32344   0.32726   0.32809
 Alpha virt. eigenvalues --    0.33161   0.33161   0.34169   0.34853   0.34853
 Alpha virt. eigenvalues --    0.34870   0.34882   0.35199   0.35626   0.35626
 Alpha virt. eigenvalues --    0.35627   0.35730   0.35730   0.37138   0.37379
 Alpha virt. eigenvalues --    0.38218   0.38218   0.39025   0.39051   0.39172
 Alpha virt. eigenvalues --    0.39233   0.39439   0.39439   0.40084   0.40084
 Alpha virt. eigenvalues --    0.40364   0.40854   0.41094   0.41094   0.41300
 Alpha virt. eigenvalues --    0.41962   0.42464   0.42464   0.42669   0.43027
 Alpha virt. eigenvalues --    0.43027   0.43212   0.43223   0.43244   0.43512
 Alpha virt. eigenvalues --    0.44082   0.44148   0.44148   0.44775   0.45211
 Alpha virt. eigenvalues --    0.45211   0.46676   0.47582   0.47848   0.47848
 Alpha virt. eigenvalues --    0.48174   0.48174   0.48724   0.48855   0.49774
 Alpha virt. eigenvalues --    0.49774   0.50725   0.50926   0.51074   0.51314
 Alpha virt. eigenvalues --    0.51589   0.52018   0.52018   0.54028   0.54138
 Alpha virt. eigenvalues --    0.54138   0.55852   0.55852   0.56323   0.58140
 Alpha virt. eigenvalues --    0.58285   0.58377   0.59715   0.59715   0.60164
 Alpha virt. eigenvalues --    0.60208   0.60208   0.60450   0.60709   0.61221
 Alpha virt. eigenvalues --    0.61427   0.61427   0.61935   0.62019   0.63183
 Alpha virt. eigenvalues --    0.63183   0.63438   0.63438   0.63598   0.64540
 Alpha virt. eigenvalues --    0.65587   0.65587   0.66301   0.67017   0.67374
 Alpha virt. eigenvalues --    0.68079   0.68079   0.69148   0.69148   0.70180
 Alpha virt. eigenvalues --    0.70569   0.71214   0.71228   0.71248   0.71248
 Alpha virt. eigenvalues --    0.71863   0.71863   0.72562   0.72739   0.72781
 Alpha virt. eigenvalues --    0.72781   0.73670   0.74263   0.74702   0.74781
 Alpha virt. eigenvalues --    0.75136   0.76407   0.76407   0.77381   0.77737
 Alpha virt. eigenvalues --    0.77737   0.78076   0.78100   0.79593   0.79593
 Alpha virt. eigenvalues --    0.80665   0.81406   0.81406   0.82414   0.83344
 Alpha virt. eigenvalues --    0.85308   0.85766   0.86337   0.86337   0.88523
 Alpha virt. eigenvalues --    0.89274   0.89274   0.89419   0.90227   0.91078
 Alpha virt. eigenvalues --    0.91382   0.91382   0.91681   0.91757   0.91757
 Alpha virt. eigenvalues --    0.92011   0.93109   0.93109   0.93243   0.93938
 Alpha virt. eigenvalues --    0.94000   0.94000   0.97499   0.98017   0.98338
 Alpha virt. eigenvalues --    0.99615   0.99615   0.99682   0.99697   0.99697
 Alpha virt. eigenvalues --    0.99831   0.99973   1.00184   1.00261   1.00261
 Alpha virt. eigenvalues --    1.00347   1.00363   1.00736   1.01045   1.01335
 Alpha virt. eigenvalues --    1.01335   1.01645   1.01645   1.01962   1.03455
 Alpha virt. eigenvalues --    1.03455   1.03626   1.04089   1.04148   1.04247
 Alpha virt. eigenvalues --    1.04247   1.04343   1.05205   1.05594   1.05594
 Alpha virt. eigenvalues --    1.05816   1.05816   1.06539   1.06747   1.07946
 Alpha virt. eigenvalues --    1.07946   1.08165   1.10246   1.10469   1.10635
 Alpha virt. eigenvalues --    1.13504   1.14609   1.14609   1.15202   1.15202
 Alpha virt. eigenvalues --    1.16032   1.16118   1.16243   1.16243   1.20177
 Alpha virt. eigenvalues --    1.20286   1.20332   1.20332   1.20609   1.21073
 Alpha virt. eigenvalues --    1.21361   1.22109   1.22109   1.22657   1.22952
 Alpha virt. eigenvalues --    1.22957   1.22957   1.22960   1.23014   1.23090
 Alpha virt. eigenvalues --    1.24374   1.24374   1.25331   1.25331   1.25506
 Alpha virt. eigenvalues --    1.25944   1.26956   1.26956   1.27006   1.27071
 Alpha virt. eigenvalues --    1.27286   1.28842   1.28842   1.28851   1.29852
 Alpha virt. eigenvalues --    1.31792   1.31792   1.32039   1.32558   1.32829
 Alpha virt. eigenvalues --    1.32829   1.33319   1.33809   1.33814   1.33814
 Alpha virt. eigenvalues --    1.34335   1.34444   1.34974   1.37216   1.37216
 Alpha virt. eigenvalues --    1.41097   1.41170   1.41375   1.41978   1.41978
 Alpha virt. eigenvalues --    1.45980   1.46204   1.46290   1.46290   1.46588
 Alpha virt. eigenvalues --    1.46636   1.47552   1.47552   1.47683   1.48574
 Alpha virt. eigenvalues --    1.48574   1.48627   1.50538   1.51153   1.51609
 Alpha virt. eigenvalues --    1.51844   1.52280   1.52280   1.52912   1.52912
 Alpha virt. eigenvalues --    1.53276   1.53387   1.53387   1.55446   1.56483
 Alpha virt. eigenvalues --    1.57466   1.57466   1.57880   1.61514   1.64002
 Alpha virt. eigenvalues --    1.64002   1.64280   1.65380   1.65575   1.65575
 Alpha virt. eigenvalues --    1.65797   1.66158   1.68689   1.68689   1.69901
 Alpha virt. eigenvalues --    1.69901   1.71104   1.71151   1.71216   1.71328
 Alpha virt. eigenvalues --    1.71328   1.71665   1.71817   1.72831   1.72831
 Alpha virt. eigenvalues --    1.73002   1.73358   1.74319   1.76859   1.76859
 Alpha virt. eigenvalues --    1.77873   1.78667   1.78778   1.79323   1.79323
 Alpha virt. eigenvalues --    1.80691   1.80691   1.81718   1.82437   1.82993
 Alpha virt. eigenvalues --    1.82993   1.83046   1.83265   1.83265   1.83449
 Alpha virt. eigenvalues --    1.84395   1.85582   1.85582   1.85659   1.85683
 Alpha virt. eigenvalues --    1.87306   1.87434   1.87434   1.87571   1.87605
 Alpha virt. eigenvalues --    1.88036   1.88164   1.88569   1.88569   1.89544
 Alpha virt. eigenvalues --    1.90293   1.90293   1.91695   1.91851   1.91851
 Alpha virt. eigenvalues --    1.92492   1.92567   1.92813   1.92813   1.93004
 Alpha virt. eigenvalues --    1.95116   1.95345   1.95422   1.95422   1.96078
 Alpha virt. eigenvalues --    1.98149   2.00052   2.00293   2.00293   2.02405
 Alpha virt. eigenvalues --    2.02619   2.03147   2.03147   2.03852   2.05423
 Alpha virt. eigenvalues --    2.08978   2.08978   2.09120   2.09778   2.09778
 Alpha virt. eigenvalues --    2.10573   2.11846   2.11846   2.12825   2.13493
 Alpha virt. eigenvalues --    2.14685   2.15426   2.15426   2.16454   2.16557
 Alpha virt. eigenvalues --    2.16557   2.16844   2.16858   2.16976   2.17966
 Alpha virt. eigenvalues --    2.20552   2.20552   2.21372   2.22619   2.24982
 Alpha virt. eigenvalues --    2.24982   2.28522   2.29862   2.29862   2.30278
 Alpha virt. eigenvalues --    2.34145   2.34746   2.34746   2.35211   2.36106
 Alpha virt. eigenvalues --    2.37133   2.37133   2.37229   2.37288   2.38038
 Alpha virt. eigenvalues --    2.38038   2.40226   2.43148   2.43358   2.43358
 Alpha virt. eigenvalues --    2.44197   2.44197   2.45550   2.46098   2.47538
 Alpha virt. eigenvalues --    2.48274   2.48274   2.50637   2.50637   2.50651
 Alpha virt. eigenvalues --    2.51442   2.54252   2.56149   2.56839   2.56931
 Alpha virt. eigenvalues --    2.56931   2.59304   2.59423   2.60248   2.60248
 Alpha virt. eigenvalues --    2.60697   2.61939   2.63978   2.63978   2.67351
 Alpha virt. eigenvalues --    2.68747   2.68921   2.68978   2.68978   2.71862
 Alpha virt. eigenvalues --    2.71862   2.72385   2.72390   2.73472   2.74066
 Alpha virt. eigenvalues --    2.74066   2.76513   2.77773   2.77773   2.78114
 Alpha virt. eigenvalues --    2.79384   2.82050   2.82050   2.82741   2.82779
 Alpha virt. eigenvalues --    2.84206   2.84949   2.84949   2.85615   2.87532
 Alpha virt. eigenvalues --    2.92011   2.92011   2.93686   2.94291   2.94291
 Alpha virt. eigenvalues --    2.94826   2.95095   2.96767   2.96767   2.97195
 Alpha virt. eigenvalues --    2.98476   2.99177   2.99298   2.99298   2.99941
 Alpha virt. eigenvalues --    3.01082   3.01354   3.02510   3.02510   3.03380
 Alpha virt. eigenvalues --    3.03380   3.03660   3.05285   3.05285   3.05324
 Alpha virt. eigenvalues --    3.05788   3.12499   3.12810   3.12875   3.12875
 Alpha virt. eigenvalues --    3.13347   3.14565   3.14565   3.15924   3.18315
 Alpha virt. eigenvalues --    3.20422   3.22674   3.22674   3.26858   3.27004
 Alpha virt. eigenvalues --    3.27004   3.28955   3.29153   3.31704   3.32921
 Alpha virt. eigenvalues --    3.33278   3.33278   3.33878   3.34386   3.34386
 Alpha virt. eigenvalues --    3.36847   3.49670   3.54158   3.54158   3.56863
 Alpha virt. eigenvalues --    3.56927   3.56927   3.58192   3.59761   3.61136
 Alpha virt. eigenvalues --    3.61136   3.61899   3.69519   3.72052   3.72052
 Alpha virt. eigenvalues --    3.72219   3.72437   3.72536   3.74023   3.74325
 Alpha virt. eigenvalues --    3.74325   3.74473   3.74473   3.74548   3.74678
 Alpha virt. eigenvalues --    3.75597   3.75603   3.75603   3.75620   3.76184
 Alpha virt. eigenvalues --    3.76184   3.76195   3.76254   3.77035   3.77045
 Alpha virt. eigenvalues --    3.77045   3.77073   3.77920   3.77920   3.78021
 Alpha virt. eigenvalues --    3.78021   3.78350   3.78482   3.79953   3.80654
 Alpha virt. eigenvalues --    3.80753   3.80779   3.80779   3.81141   3.82156
 Alpha virt. eigenvalues --    3.84125   3.84329   3.84329   3.84608   3.84872
 Alpha virt. eigenvalues --    3.84872   3.85060   3.92208   3.92247   3.92247
 Alpha virt. eigenvalues --    3.92250   3.92254   3.92851   3.92851   3.94292
 Alpha virt. eigenvalues --    3.95291   3.95299   3.95299   3.95316   3.95807
 Alpha virt. eigenvalues --    3.95807   3.96075   3.96393   3.98316   3.98318
 Alpha virt. eigenvalues --    3.98319   3.98319   4.01798   4.01811   4.01811
 Alpha virt. eigenvalues --    4.01838   4.04867   4.05053   4.06356   4.06356
 Alpha virt. eigenvalues --    4.07442   4.08044   4.08044   4.08763   4.08763
 Alpha virt. eigenvalues --    4.09196   4.10028   4.10128   4.14046   4.14653
 Alpha virt. eigenvalues --    4.14653   4.16242   4.17286   4.20171   4.20171
 Alpha virt. eigenvalues --    4.20329   4.20585   4.24241   4.24241   4.28072
 Alpha virt. eigenvalues --    4.28196   4.28504   4.29965   4.34941   4.34941
 Alpha virt. eigenvalues --    4.38492   4.39186   4.39186   4.46008   4.47635
 Alpha virt. eigenvalues --    4.51924   4.51924   4.59643   4.60637   4.60637
 Alpha virt. eigenvalues --    4.61290   4.70179   4.70522   4.70522   4.71283
 Alpha virt. eigenvalues --    4.74274   4.74830   4.74830   4.75185   4.79457
 Alpha virt. eigenvalues --    4.79543   4.79543   4.79687   4.84634   4.84964
 Alpha virt. eigenvalues --    4.84964   4.85619   5.07941   5.07941   5.09425
 Alpha virt. eigenvalues --    5.12398   5.17871   5.32615   5.32615   5.48908
 Alpha virt. eigenvalues --    5.99551   5.99664   5.99664   5.99758   6.04140
 Alpha virt. eigenvalues --    6.04242   6.04242   6.04392   6.07901   6.08014
 Alpha virt. eigenvalues --    6.08014   6.08107   6.12632   6.12818   6.12818
 Alpha virt. eigenvalues --    6.12923   6.13628   6.13843   6.13843   6.14124
 Alpha virt. eigenvalues --    6.23888   6.23971   6.23971   6.24053   6.28081
 Alpha virt. eigenvalues --    6.28159   6.28159   6.28231   6.33078   6.33230
 Alpha virt. eigenvalues --    6.33230   6.33345   6.36485   6.36844   6.36844
 Alpha virt. eigenvalues --    6.37449   6.49197   6.50061   6.50061   6.52101
 Alpha virt. eigenvalues --    6.56099   6.56099   6.56101   6.56101   6.71991
 Alpha virt. eigenvalues --    6.72230   6.72230   6.72960   7.66869   7.66869
 Alpha virt. eigenvalues --    7.85928   7.93383   8.15683   9.86649  10.41335
 Alpha virt. eigenvalues --   10.41335  23.25864  23.29364  23.29364  23.31618
 Alpha virt. eigenvalues --   23.73117  23.73296  23.73296  23.73373  23.73446
 Alpha virt. eigenvalues --   23.75114  23.75114  23.77660  23.83821  23.83821
 Alpha virt. eigenvalues --   23.84309  23.84622  23.84821  23.85761  23.85761
 Alpha virt. eigenvalues --   23.86126  23.95465  23.95516  23.95516  23.95683
 Alpha virt. eigenvalues --   23.98802  23.98856  23.98856  23.99027  24.05750
 Alpha virt. eigenvalues --   24.06067  24.06067  24.06817  34.27712  35.54029
 Alpha virt. eigenvalues --   35.54090  35.54090  35.56831  35.66600  35.66929
 Alpha virt. eigenvalues --   35.66929  35.67020  44.11553  44.53298  44.53298
[...]
 00003034,0.,-0.00036001,0.00037484,0.,0.00016144,-0.00026802,0.,-0.000
 29353,-0.00026241,0.,0.00183225,-0.00029976,0.,0.00080452,-0.00010141,
 0.,0.00035418,0.00014543,0.,0.00025868,0.00006783,0.,0.00012762,0.0005
 8863,0.,0.00074685,0.00011132,0.,0.00020190,0.00053791,0.,-0.00165952,
 0.00094028,0.,-0.00065415,0.00028448,0.,-0.00007983,-0.00029218,0.,0.0
 0010424,-0.00022250,0.,-0.00029979,0.00011828,0.,-0.00032686,-0.000087
 49,0.,0.00001904,-0.00007572,0.,0.00010132,-0.00004255,0.,0.00290153,0
 .00076065,0.,-0.00254919,-0.00363813,0.,0.00067925,0.00027838,0.,-0.00
 027628,0.00021363,0.,0.00025818,-0.00034150,0.,0.00028865,0.00030623,0
 .,-0.00019963,0.00002457,0.,0.00004727,-0.00000006,0.,-0.00851200,-0.0
 0326778,0.,-0.00627521,0.00443603,0.,-0.00006204,-0.00057229,0.,0.0001
 0634,-0.00043011,0.,-0.00043917,0.00010425,0.,-0.00044128,-0.00011833,
 0.,-0.00008739,0.00023640,0.,0.00007874,0.00025190,0.,0.05338415,-0.02
 637134,0.,0.11730055,-0.13706157,0.,-0.00052538,0.00005259,0.,0.000170
 95,0.00002778,0.,0.00001769,0.00025150,0.,0.00001928,-0.00022947,0.,0.
 00014803,-0.00003593,0.,-0.00003268,-0.00005281,0.,0.00245057,-0.00209
 167,0.,-0.00202375,0.00989103,0.,-0.00023008,0.00043302,0.,0.00012110,
 0.00030401,0.,0.00029238,0.00013508,0.,0.00030289,-0.00013921,0.,0.000
 10529,-0.00021639,0.,-0.00012110,-0.00025274,0.,-0.00042016,0.00494448
 ,0.,-0.15592612,0.15183156,0.,0.,-0.00010893,0.,0.,0.00009705,0.,0.,0.
 00001847,0.,0.,-0.00007424,0.,0.,-0.00093152,0.,0.,0.00002630,0.,0.,-0
 .00001141,0.,0.,-0.00000665,0.,0.,0.00000219,0.,0.,0.00005328,0.,0.,-0
 .00008634,0.,0.,0.00082302,0.,0.,0.00127129,0.,0.,0.00005734,0.,0.,-0.
 00002799,0.,0.,-0.00000418,0.,0.,0.00000371,0.,0.,0.00001889,0.,0.,0.0
 0000101,0.,0.,-0.00158279,0.,0.,0.00508613,0.,0.,-0.00001131,0.,0.,0.0
 0000409,0.,0.,0.00000116,0.,0.,-0.00000234,0.,0.,-0.00000210,0.,0.,0.0
 0000253,0.,0.,0.00508228,0.,0.,0.00720435,0.,0.,-0.00000806,0.,0.,0.00
 000350,0.,0.,0.00000083,0.,0.,-0.00000127,0.,0.,-0.00000286,0.,0.,0.00
 000219,0.,0.,0.00663624,0.,0.,-0.03617507,0.,0.,0.00000633,0.,0.,-0.00
 000359,0.,0.,-0.00000017,0.,0.,0.00000058,0.,0.,0.00000191,0.,0.,0.000
 00059,0.,0.,0.00007969,0.,0.,-0.00471462,0.,0.,0.00000492,0.,0.,-0.000
 00179,0.,0.,-0.00000036,0.,0.,0.00000082,0.,0.,0.00000115,0.,0.,-0.000
 00179,0.,0.,-0.00434884,0.,0.,0.02178361,-0.00126892,0.00425020,0.,-0.
 09787468,-0.00308608,0.,0.02861983,0.00654761,0.,-0.01185774,-0.000152
 78,0.,0.00044805,0.00743599,0.,0.02344325,-0.03273013,0.,-0.30168538,0
 .06297738,0.,-0.11452516,0.06471306,0.,0.01100170,-0.00658105,0.,0.010
 38761,-0.00662587,0.,0.01886205,-0.00099638,0.,0.00393496,-0.01679392,
 0.,0.01049008,-0.00007755,0.,0.00926946,0.01486256,0.,-0.02723562,0.03
 956923,0.,-0.02875389,0.04412081,0.,-0.01602349,-0.00677825,0.,0.00166
 064,0.00259345,0.,-0.00052024,0.00355216,0.,-0.00534335,0.00144734,0.,
 -0.00520276,-0.00267071,0.,-0.00110507,-0.00413257,0.,-0.00335856,-0.0
 1322367,0.,0.01345749,-0.00240016,0.,0.00441100,0.00250022,0.,-0.00197
 305,-0.00198983,0.,0.00159575,-0.00358352,0.,0.00429721,-0.00172472,0.
 ,0.00366211,0.00211380,0.,0.00423924,0.00177790,0.,-0.00562334,0.00421
 098,0.,-0.00457781,0.00566330,0.,-0.00190205,-0.00393285,0.,0.00152556
 ,0.00221714,0.,-0.00203663,0.00265243,0.,-0.00298192,0.00281709,0.,-0.
 00279910,-0.00253271,0.,-0.00030836,0.00077239,0.,0.00163287,0.0005500
 8,0.,-0.00351143,0.00216621,0.,-0.00099303,0.00043602,0.,0.00135393,0.
 00018072,0.,-0.00138992,0.00012662,0.,-0.00023258,0.00144672,0.,-0.000
 37018,-0.00157229,0.,-0.00024635,0.00009505,0.,-0.00034302,-0.00090409
 ,0.,0.00160774,0.00074541,0.,0.00004222,0.00028208,0.,0.00012310,-0.00
 052437,0.,-0.00068411,-0.00145275,0.,0.00129171,0.00055834,0.,0.000625
 14,-0.00015644,0.,0.52424874,0.00425020,-0.00126892,0.,0.00654760,0.02
 861983,0.,-0.00308608,-0.09787468,0.,0.00743599,0.00044805,0.,-0.00015
 278,-0.01185774,0.,-0.00658105,0.01100170,0.,0.06471306,-0.11452516,0.
 ,0.06297738,-0.30168538,0.,-0.03273013,0.02344325,0.,-0.00007755,0.010
 49008,0.,-0.01679392,0.00393496,0.,-0.00099638,0.01886205,0.,-0.006625
 87,0.01038761,0.,-0.00677825,-0.01602349,0.,0.04412081,-0.02875389,0.,
 0.03956923,-0.02723562,0.,0.01486256,0.00926946,0.,-0.00267071,-0.0052
 0276,0.,0.00144734,-0.00534335,0.,0.00355216,-0.00052024,0.,0.00259345
 ,0.00166064,0.,0.00250022,0.00441100,0.,-0.00240016,0.01345749,0.,-0.0
 1322367,-0.00335856,0.,-0.00413257,-0.00110507,0.,0.00211380,0.0036621
 1,0.,-0.00172472,0.00429721,0.,-0.00358352,0.00159574,0.,-0.00198983,-
 0.00197305,0.,-0.00393285,-0.00190205,0.,0.00566330,-0.00457781,0.,0.0
 0421098,-0.00562334,0.,0.00177790,0.00423924,0.,-0.00253270,-0.0027991
 0,0.,0.00281708,-0.00298192,0.,0.00265243,-0.00203663,0.,0.00221714,0.
 00152556,0.,0.00043602,-0.00099303,0.,0.00216621,-0.00351143,0.,0.0005
 5008,0.00163287,0.,0.00077239,-0.00030836,0.,-0.00157229,-0.00037018,0
 .,0.00144672,-0.00023258,0.,0.00012662,-0.00138992,0.,0.00018072,0.001
 35393,0.,0.00028208,0.00004222,0.,0.00074541,0.00160774,0.,-0.00090409
 ,-0.00034302,0.,0.00009505,-0.00024635,0.,-0.00015644,0.00062514,0.,0.
 00055834,0.00129171,0.,-0.00145275,-0.00068411,0.,-0.00052438,0.000123
 10,0.,-0.18394001,0.52424874,0.,0.,-0.00158242,0.,0.,0.01370758,0.,0.,
 0.01370758,0.,0.,0.00067684,0.,0.,0.00067683,0.,0.,0.00697052,0.,0.,-0
 .06379027,0.,0.,-0.06379027,0.,0.,0.00697052,0.,0.,0.00054557,0.,0.,-0
 .00023520,0.,0.,-0.00023520,0.,0.,0.00054558,0.,0.,0.00286810,0.,0.,-0
 .00278534,0.,0.,-0.00278534,0.,0.,0.00286810,0.,0.,0.00001081,0.,0.,-0
 .00009669,0.,0.,-0.00009669,0.,0.,0.00001081,0.,0.,0.00031868,0.,0.,-0
 .00010193,0.,0.,-0.00010193,0.,0.,0.00031868,0.,0.,-0.00003771,0.,0.,0
 .00004429,0.,0.,0.00004429,0.,0.,-0.00003771,0.,0.,-0.00009404,0.,0.,0
 .00024719,0.,0.,0.00024719,0.,0.,-0.00009404,0.,0.,-0.00001126,0.,0.,0
 .00003284,0.,0.,0.00003284,0.,0.,-0.00001126,0.,0.,0.00024593,0.,0.,0.
 00021652,0.,0.,0.00021652,0.,0.,0.00024593,0.,0.,0.00001073,0.,0.,0.00
 000384,0.,0.,0.00000384,0.,0.,0.00001073,0.,0.,0.00007734,0.,0.,-0.000
 23178,0.,0.,-0.00023178,0.,0.,0.00007734,0.,0.,0.00000319,0.,0.,-0.000
 01600,0.,0.,-0.00001600,0.,0.,0.00000319,0.,0.,0.08894728,-0.00126892,
 -0.00425020,0.,-0.01185774,0.00015278,0.,0.02861983,-0.00654761,0.,-0.
 09787468,0.00308608,0.,0.00044805,-0.00743599,0.,0.01886205,0.00099638
 ,0.,0.01038761,0.00662587,0.,0.01100170,0.00658105,0.,-0.11452516,-0.0
 6471306,0.,-0.30168538,-0.06297738,0.,0.02344325,0.03273013,0.,0.01049
 008,0.00007755,0.,0.00393496,0.01679392,0.,-0.00052024,-0.00355216,0.,
 0.00166064,-0.00259345,0.,-0.01602349,0.00677825,0.,-0.02875389,-0.044
 12081,0.,-0.02723562,-0.03956923,0.,0.00926946,-0.01486256,0.,-0.00520
 276,0.00267071,0.,-0.00534335,-0.00144734,0.,0.00159575,0.00358352,0.,
 -0.00197305,0.00198983,0.,0.00441100,-0.00250022,0.,0.01345749,0.00240
 016,0.,-0.00335856,0.01322367,0.,-0.00110507,0.00413257,0.,0.00366211,
 -0.00211380,0.,0.00429721,0.00172472,0.,-0.00203663,-0.00265243,0.,0.0
 0152556,-0.00221714,0.,-0.00190205,0.00393285,0.,-0.00457781,-0.005663
 30,0.,-0.00562334,-0.00421098,0.,0.00423924,-0.00177790,0.,-0.00279910
 ,0.00253271,0.,-0.00298192,-0.00281709,0.,-0.00138992,-0.00012662,0.,0
 .00135393,-0.00018072,0.,-0.00099303,-0.00043602,0.,-0.00351143,-0.002
 16621,0.,0.00163287,-0.00055008,0.,-0.00030836,-0.00077239,0.,-0.00037
 018,0.00157229,0.,-0.00023258,-0.00144672,0.,-0.00068411,0.00145275,0.
 ,0.00012310,0.00052437,0.,0.00004222,-0.00028208,0.,0.00160774,-0.0007
 4541,0.,-0.00034302,0.00090409,0.,-0.00024635,-0.00009505,0.,0.0006251
 4,0.00015644,0.,0.00129171,-0.00055834,0.,-0.00872359,0.00310292,0.,0.
 52424874,-0.00425020,-0.00126892,0.,-0.00743599,0.00044805,0.,0.003086
 08,-0.09787468,0.,-0.00654760,0.02861983,0.,0.00015278,-0.01185774,0.,
 0.01679392,0.00393496,0.,0.00007755,0.01049008,0.,0.03273013,0.0234432
 5,0.,-0.06297738,-0.30168538,0.,-0.06471306,-0.11452516,0.,0.00658105,
 0.01100170,0.,0.00662587,0.01038761,0.,0.00099638,0.01886205,0.,-0.001
 44734,-0.00534335,0.,0.00267071,-0.00520276,0.,-0.01486256,0.00926946,
 0.,-0.03956923,-0.02723562,0.,-0.04412081,-0.02875389,0.,0.00677825,-0
 .01602349,0.,-0.00259345,0.00166064,0.,-0.00355216,-0.00052024,0.,0.00
 172472,0.00429721,0.,-0.00211380,0.00366211,0.,0.00413257,-0.00110507,
 0.,0.01322367,-0.00335856,0.,0.00240016,0.01345749,0.,-0.00250022,0.00
 441100,0.,0.00198983,-0.00197305,0.,0.00358352,0.00159574,0.,-0.002817
 08,-0.00298192,0.,0.00253270,-0.00279910,0.,-0.00177790,0.00423924,0.,
 -0.00421098,-0.00562334,0.,-0.00566330,-0.00457781,0.,0.00393285,-0.00
 190205,0.,-0.00221714,0.00152556,0.,-0.00265243,-0.00203663,0.,-0.0014
 4672,-0.00023258,0.,0.00157229,-0.00037018,0.,-0.00077239,-0.00030836,
 0.,-0.00055008,0.00163287,0.,-0.00216621,-0.00351143,0.,-0.00043602,-0
 .00099303,0.,-0.00018072,0.00135393,0.,-0.00012662,-0.00138992,0.,-0.0
 0055834,0.00129171,0.,0.00015644,0.00062514,0.,-0.00009505,-0.00024635
 ,0.,0.00090409,-0.00034302,0.,-0.00074541,0.00160774,0.,-0.00028208,0.
 00004222,0.,0.00052438,0.00012310,0.,0.00145275,-0.00068411,0.,-0.0031
 0292,-0.01254602,0.,0.18394001,0.52424874,0.,0.,-0.00158242,0.,0.,0.00
 067684,0.,0.,0.01370758,0.,0.,0.01370758,0.,0.,0.00067683,0.,0.,-0.000
 23520,0.,0.,0.00054557,0.,0.,0.00697052,0.,0.,-0.06379027,0.,0.,-0.063
 79027,0.,0.,0.00697052,0.,0.,0.00054558,0.,0.,-0.00023520,0.,0.,-0.000
 09669,0.,0.,0.00001081,0.,0.,0.00286810,0.,0.,-0.00278534,0.,0.,-0.002
 78534,0.,0.,0.00286810,0.,0.,0.00001081,0.,0.,-0.00009669,0.,0.,0.0000
 4429,0.,0.,-0.00003771,0.,0.,0.00031868,0.,0.,-0.00010193,0.,0.,-0.000
 10193,0.,0.,0.00031868,0.,0.,-0.00003771,0.,0.,0.00004429,0.,0.,0.0000
 3284,0.,0.,-0.00001126,0.,0.,-0.00009404,0.,0.,0.00024719,0.,0.,0.0002
 4719,0.,0.,-0.00009404,0.,0.,-0.00001126,0.,0.,0.00003284,0.,0.,0.0000
 0384,0.,0.,0.00001073,0.,0.,0.00024593,0.,0.,0.00021652,0.,0.,0.000216
 52,0.,0.,0.00024593,0.,0.,0.00001073,0.,0.,0.00000384,0.,0.,-0.0000160
 0,0.,0.,0.00000319,0.,0.,0.00007734,0.,0.,-0.00023178,0.,0.,-0.0002317
 8,0.,0.,0.00007734,0.,0.,0.00000319,0.,0.,-0.00001600,0.,0.,-0.0022671
 5,0.,0.,0.08894728,-0.00126892,0.00425020,0.,-0.01185774,-0.00015278,0
 .,0.00044805,0.00743599,0.,-0.09787468,-0.00308608,0.,0.02861983,0.006
 54761,0.,0.01038761,-0.00662587,0.,0.01886205,-0.00099638,0.,0.0039349
 6,-0.01679392,0.,0.01049008,-0.00007755,0.,0.02344325,-0.03273013,0.,-
 0.30168538,0.06297738,0.,-0.11452516,0.06471306,0.,0.01100170,-0.00658
 105,0.,0.00166064,0.00259345,0.,-0.00052024,0.00355216,0.,-0.00534335,
 0.00144734,0.,-0.00520276,-0.00267071,0.,0.00926946,0.01486256,0.,-0.0
 2723562,0.03956923,0.,-0.02875389,0.04412081,0.,-0.01602349,-0.0067782
 5,0.,-0.00197305,-0.00198983,0.,0.00159575,-0.00358352,0.,0.00429721,-
 0.00172472,0.,0.00366211,0.00211380,0.,-0.00110507,-0.00413257,0.,-0.0
 0335856,-0.01322367,0.,0.01345749,-0.00240016,0.,0.00441100,0.00250022
 ,0.,0.00152556,0.00221714,0.,-0.00203663,0.00265243,0.,-0.00298192,0.0
 0281709,0.,-0.00279910,-0.00253271,0.,0.00423924,0.00177790,0.,-0.0056
 2334,0.00421098,0.,-0.00457781,0.00566330,0.,-0.00190205,-0.00393285,0
 .,0.00135393,0.00018072,0.,-0.00138992,0.00012662,0.,-0.00023258,0.001
 44672,0.,-0.00037018,-0.00157229,0.,-0.00030836,0.00077239,0.,0.001632
 87,0.00055008,0.,-0.00351143,0.00216621,0.,-0.00099303,0.00043602,0.,0
 .00012310,-0.00052437,0.,-0.00068411,-0.00145275,0.,0.00129171,0.00055
 834,0.,0.00062514,-0.00015644,0.,-0.00024635,0.00009505,0.,-0.00034302
 ,-0.00090409,0.,0.00160774,0.00074541,0.,0.00004222,0.00028208,0.,-0.0
 1623409,0.01518046,0.,-0.01254602,0.00310292,0.,0.52424874,0.00425020,
 -0.00126892,0.,0.00743599,0.00044805,0.,-0.00015278,-0.01185774,0.,0.0
 0654760,0.02861983,0.,-0.00308608,-0.09787468,0.,-0.00007755,0.0104900
 8,0.,-0.01679392,0.00393496,0.,-0.00099638,0.01886205,0.,-0.00662587,0
 .01038761,0.,-0.00658105,0.01100170,0.,0.06471306,-0.11452516,0.,0.062
 97738,-0.30168538,0.,-0.03273013,0.02344325,0.,-0.00267071,-0.00520276
 ,0.,0.00144734,-0.00534335,0.,0.00355216,-0.00052024,0.,0.00259345,0.0
 0166064,0.,-0.00677825,-0.01602349,0.,0.04412081,-0.02875389,0.,0.0395
 6923,-0.02723562,0.,0.01486256,0.00926946,0.,0.00211380,0.00366211,0.,
 -0.00172472,0.00429721,0.,-0.00358352,0.00159574,0.,-0.00198983,-0.001
 97305,0.,0.00250022,0.00441100,0.,-0.00240016,0.01345749,0.,-0.0132236
 7,-0.00335856,0.,-0.00413257,-0.00110507,0.,-0.00253270,-0.00279910,0.
 ,0.00281708,-0.00298192,0.,0.00265243,-0.00203663,0.,0.00221714,0.0015
 2556,0.,-0.00393285,-0.00190205,0.,0.00566330,-0.00457781,0.,0.0042109
 8,-0.00562334,0.,0.00177790,0.00423924,0.,-0.00157229,-0.00037018,0.,0
 .00144672,-0.00023258,0.,0.00012662,-0.00138992,0.,0.00018072,0.001353
 93,0.,0.00043602,-0.00099303,0.,0.00216621,-0.00351143,0.,0.00055008,0
 .00163287,0.,0.00077239,-0.00030836,0.,-0.00015644,0.00062514,0.,0.000
 55834,0.00129171,0.,-0.00145275,-0.00068411,0.,-0.00052438,0.00012310,
 0.,0.00028208,0.00004222,0.,0.00074541,0.00160774,0.,-0.00090409,-0.00
 034302,0.,0.00009505,-0.00024635,0.,0.01518046,-0.01623409,0.,-0.00310
 292,-0.00872359,0.,-0.18394001,0.52424874,0.,0.,-0.00158242,0.,0.,0.00
 067684,0.,0.,0.00067683,0.,0.,0.01370758,0.,0.,0.01370758,0.,0.,0.0005
 4557,0.,0.,-0.00023520,0.,0.,-0.00023520,0.,0.,0.00054558,0.,0.,0.0069
 7052,0.,0.,-0.06379027,0.,0.,-0.06379027,0.,0.,0.00697052,0.,0.,0.0000
 1081,0.,0.,-0.00009669,0.,0.,-0.00009669,0.,0.,0.00001081,0.,0.,0.0028
 6810,0.,0.,-0.00278534,0.,0.,-0.00278534,0.,0.,0.00286810,0.,0.,-0.000
 03771,0.,0.,0.00004429,0.,0.,0.00004429,0.,0.,-0.00003771,0.,0.,0.0003
 1868,0.,0.,-0.00010193,0.,0.,-0.00010193,0.,0.,0.00031868,0.,0.,-0.000
 01126,0.,0.,0.00003284,0.,0.,0.00003284,0.,0.,-0.00001126,0.,0.,-0.000
 09404,0.,0.,0.00024719,0.,0.,0.00024719,0.,0.,-0.00009404,0.,0.,0.0000
 1073,0.,0.,0.00000384,0.,0.,0.00000384,0.,0.,0.00001073,0.,0.,0.000245
 93,0.,0.,0.00021652,0.,0.,0.00021652,0.,0.,0.00024593,0.,0.,0.00000319
 ,0.,0.,-0.00001600,0.,0.,-0.00001600,0.,0.,0.00000319,0.,0.,0.00007734
 ,0.,0.,-0.00023178,0.,0.,-0.00023178,0.,0.,0.00007734,0.,0.,0.00000992
 ,0.,0.,-0.00226715,0.,0.,0.08894728,-0.00126892,-0.00425020,0.,-0.0978
 7468,0.00308608,0.,0.00044805,-0.00743599,0.,-0.01185774,0.00015278,0.
 ,0.02861983,-0.00654761,0.,-0.30168538,-0.06297738,0.,0.02344325,0.032
 73013,0.,0.01049008,0.00007755,0.,0.00393496,0.01679392,0.,0.01886205,
 0.00099638,0.,0.01038761,0.00662587,0.,0.01100170,0.00658105,0.,-0.114
 52516,-0.06471306,0.,-0.02723562,-0.03956923,0.,0.00926946,-0.01486256
 ,0.,-0.00520276,0.00267071,0.,-0.00534335,-0.00144734,0.,-0.00052024,-
 0.00355216,0.,0.00166064,-0.00259345,0.,-0.01602349,0.00677825,0.,-0.0
 2875389,-0.04412081,0.,-0.00335856,0.01322367,0.,-0.00110507,0.0041325
 7,0.,0.00366211,-0.00211380,0.,0.00429721,0.00172472,0.,0.00159575,0.0
 0358352,0.,-0.00197305,0.00198983,0.,0.00441100,-0.00250022,0.,0.01345
 749,0.00240016,0.,-0.00562334,-0.00421098,0.,0.00423924,-0.00177790,0.
 ,-0.00279910,0.00253271,0.,-0.00298192,-0.00281709,0.,-0.00203663,-0.0
 0265243,0.,0.00152556,-0.00221714,0.,-0.00190205,0.00393285,0.,-0.0045
 7781,-0.00566330,0.,0.00163287,-0.00055008,0.,-0.00030836,-0.00077239,
 0.,-0.00037018,0.00157229,0.,-0.00023258,-0.00144672,0.,-0.00138992,-0
 .00012662,0.,0.00135393,-0.00018072,0.,-0.00099303,-0.00043602,0.,-0.0
 0351143,-0.00216621,0.,-0.00034302,0.00090409,0.,-0.00024635,-0.000095
 05,0.,0.00062514,0.00015644,0.,0.00129171,-0.00055834,0.,-0.00068411,0
 .00145275,0.,0.00012310,0.00052437,0.,0.00004222,-0.00028208,0.,0.0016
 0774,-0.00074541,0.,-0.01254602,-0.00310292,0.,-0.01623409,-0.01518046
 ,0.,-0.00872359,0.00310292,0.,0.52424874,-0.00425020,-0.00126892,0.,-0
 .00654760,0.02861983,0.,0.00015278,-0.01185774,0.,-0.00743599,0.000448
 05,0.,0.00308608,-0.09787468,0.,-0.06471306,-0.11452516,0.,0.00658105,
 0.01100170,0.,0.00662587,0.01038761,0.,0.00099638,0.01886205,0.,0.0167
 9392,0.00393496,0.,0.00007755,0.01049008,0.,0.03273013,0.02344325,0.,-
 0.06297738,-0.30168538,0.,-0.04412081,-0.02875389,0.,0.00677825,-0.016
 02349,0.,-0.00259345,0.00166064,0.,-0.00355216,-0.00052024,0.,-0.00144
 734,-0.00534335,0.,0.00267071,-0.00520276,0.,-0.01486256,0.00926946,0.
 ,-0.03956923,-0.02723562,0.,0.00240016,0.01345749,0.,-0.00250022,0.004
 41100,0.,0.00198983,-0.00197305,0.,0.00358352,0.00159574,0.,0.00172472
 ,0.00429721,0.,-0.00211380,0.00366211,0.,0.00413257,-0.00110507,0.,0.0
 1322367,-0.00335856,0.,-0.00566330,-0.00457781,0.,0.00393285,-0.001902
 05,0.,-0.00221714,0.00152556,0.,-0.00265243,-0.00203663,0.,-0.00281708
 ,-0.00298192,0.,0.00253270,-0.00279910,0.,-0.00177790,0.00423924,0.,-0
 .00421098,-0.00562334,0.,-0.00216621,-0.00351143,0.,-0.00043602,-0.000
 99303,0.,-0.00018072,0.00135393,0.,-0.00012662,-0.00138992,0.,-0.00144
 672,-0.00023258,0.,0.00157229,-0.00037018,0.,-0.00077239,-0.00030836,0
 .,-0.00055008,0.00163287,0.,-0.00074541,0.00160774,0.,-0.00028208,0.00
 004222,0.,0.00052438,0.00012310,0.,0.00145275,-0.00068411,0.,-0.000558
 34,0.00129171,0.,0.00015644,0.00062514,0.,-0.00009505,-0.00024635,0.,0
 .00090409,-0.00034302,0.,0.00310292,-0.00872359,0.,-0.01518046,-0.0162
 3409,0.,-0.00310292,-0.01254602,0.,0.18394001,0.52424874,0.,0.,-0.0015
 8242,0.,0.,0.01370758,0.,0.,0.00067683,0.,0.,0.00067684,0.,0.,0.013707
 58,0.,0.,-0.06379027,0.,0.,0.00697052,0.,0.,0.00054558,0.,0.,-0.000235
 20,0.,0.,-0.00023520,0.,0.,0.00054557,0.,0.,0.00697052,0.,0.,-0.063790
 27,0.,0.,-0.00278534,0.,0.,0.00286810,0.,0.,0.00001081,0.,0.,-0.000096
 69,0.,0.,-0.00009669,0.,0.,0.00001081,0.,0.,0.00286810,0.,0.,-0.002785
 34,0.,0.,-0.00010193,0.,0.,0.00031868,0.,0.,-0.00003771,0.,0.,0.000044
 29,0.,0.,0.00004429,0.,0.,-0.00003771,0.,0.,0.00031868,0.,0.,-0.000101
 93,0.,0.,0.00024719,0.,0.,-0.00009404,0.,0.,-0.00001126,0.,0.,0.000032
 84,0.,0.,0.00003284,0.,0.,-0.00001126,0.,0.,-0.00009404,0.,0.,0.000247
 19,0.,0.,0.00021652,0.,0.,0.00024593,0.,0.,0.00001073,0.,0.,0.00000384
 ,0.,0.,0.00000384,0.,0.,0.00001073,0.,0.,0.00024593,0.,0.,0.00021652,0
 .,0.,-0.00023178,0.,0.,0.00007734,0.,0.,0.00000319,0.,0.,-0.00001600,0
 .,0.,-0.00001600,0.,0.,0.00000319,0.,0.,0.00007734,0.,0.,-0.00023178,0
 .,0.,-0.00226715,0.,0.,0.00000992,0.,0.,-0.00226715,0.,0.,0.08894728\\
 0.,0.,0.,0.,-0.00016492,0.,-0.00016492,0.,0.,0.,0.00016492,0.,0.000164
 92,0.,0.,0.00025956,0.00025495,0.,-0.00025956,0.00025495,0.,0.00025495
 ,-0.00025956,0.,0.00025495,0.00025956,0.,-0.00025956,-0.00025495,0.,0.
 00025956,-0.00025495,0.,-0.00025495,0.00025956,0.,-0.00025495,-0.00025
 956,0.,-0.00009557,-0.00015115,0.,0.00009557,-0.00015115,0.,-0.0001511
 5,0.00009557,0.,-0.00015115,-0.00009557,0.,0.00009557,0.00015115,0.,-0
 .00009557,0.00015115,0.,0.00015115,-0.00009557,0.,0.00015115,0.0000955
 7,0.,0.00001079,0.00008298,0.,-0.00001079,0.00008298,0.,0.00008298,-0.
 00001079,0.,0.00008298,0.00001079,0.,-0.00001079,-0.00008298,0.,0.0000
 1079,-0.00008298,0.,-0.00008298,0.00001079,0.,-0.00008298,-0.00001079,
 0.,0.00000770,-0.00008571,0.,-0.00000770,-0.00008571,0.,-0.00008571,-0
 .00000770,0.,-0.00008571,0.00000770,0.,-0.00000770,0.00008571,0.,0.000
 00770,0.00008571,0.,0.00008571,0.00000770,0.,0.00008571,-0.00000770,0.
 ,0.00004816,0.00000818,0.,-0.00004816,0.00000818,0.,0.00000818,-0.0000
 4816,0.,0.00000818,0.00004816,0.,-0.00004816,-0.00000818,0.,0.00004816
 ,-0.00000818,0.,-0.00000818,0.00004816,0.,-0.00000818,-0.00004816,0.,0
 .00000698,-0.00000141,0.,-0.00000698,-0.00000141,0.,-0.00000141,-0.000
 00698,0.,-0.00000141,0.00000698,0.,-0.00000698,0.00000141,0.,0.0000069
 8,0.00000141,0.,0.00000141,0.00000698,0.,0.00000141,-0.00000698,0.,0.0
 0013193,0.00013193,0.,0.00013193,-0.00013193,0.,-0.00013193,-0.0001319
 3,0.,-0.00013193,0.00013193,0.\\\@


 "TIGER, TIGER BURNING BRIGHT
 IN THE FOREST OF THE NIGHT.
 WHAT IMMORTAL HAND OR EYE
 CAN FRAME THY FEARFUL SYMMETRYE?"
                     - WILLIAM BLAKE
 Job cpu time:  0 days 20 hours 41 minutes 30.1 seconds.
 File lengths (MBytes):  RWF=   2992 Int=      0 D2E=      0 Chk=     77 Scr=      1
 Normal termination of Gaussian 03 at Wed Dec  8 10:15:12 2004.

