Morpholine BH2                                                          
Freq      RMP2-FC                                                     6-311+G(d)          
Number of atoms                            I               17
Info1-9                                    I   N=           9
           8           7        1002           0           0         100
           6           2           1
Charge                                     I                0
Multiplicity                               I                1
Number of electrons                        I               54
Number of alpha electrons                  I               27
Number of beta electrons                   I               27
Number of basis functions                  I              184
Number of independent functions            I              184
Number of point charges in /Mol/           I                0
Number of translation vectors              I                0
Atomic numbers                             I   N=          17
           6           6           6           6           1           1
           1           1           1           1           1           1
           8           7           5           1           1
Nuclear charges                            R   N=          17
  6.00000000E+00  6.00000000E+00  6.00000000E+00  6.00000000E+00  1.00000000E+00
  1.00000000E+00  1.00000000E+00  1.00000000E+00  1.00000000E+00  1.00000000E+00
  1.00000000E+00  1.00000000E+00  8.00000000E+00  7.00000000E+00  5.00000000E+00
  1.00000000E+00  1.00000000E+00
Current cartesian coordinates              R   N=          51
 -4.34863095E-01  9.31635826E-01  2.27858802E+00 -4.34863095E-01 -1.94561558E+00
  2.20424687E+00 -4.34863095E-01 -1.94561558E+00 -2.20424687E+00 -4.34863095E-01
  9.31635826E-01 -2.27858802E+00  1.52493177E+00 -2.64254973E+00  2.25143744E+00
 -1.46470528E+00 -2.73007072E+00  3.81283829E+00 -2.39622296E+00  1.60509593E+00
  2.36863080E+00  5.82236563E-01  1.62436114E+00  3.93652903E+00  1.52493177E+00
 -2.64254973E+00 -2.25143744E+00 -1.46470528E+00 -2.73007072E+00 -3.81283829E+00
  5.82236563E-01  1.62436114E+00 -3.93652903E+00 -2.39622296E+00  1.60509593E+00
 -2.36863080E+00 -1.67268748E+00 -2.85552268E+00 -1.45775487E-18  7.70758003E-01
  1.92453686E+00  8.85461277E-19  2.88443361E+00  3.50222486E+00  2.01452766E-18
  3.75412994E+00  4.15769148E+00  1.98507471E+00  3.75412994E+00  4.15769148E+00
 -1.98507471E+00
Force Field                                I                0
Int Atom Types                             I   N=          17
           0           0           0           0           0           0
           0           0           0           0           0           0
           0           0           0           0           0
MM charges                                 R   N=          17
  0.00000000E+00  0.00000000E+00  0.00000000E+00  0.00000000E+00  0.00000000E+00
  0.00000000E+00  0.00000000E+00  0.00000000E+00  0.00000000E+00  0.00000000E+00
  0.00000000E+00  0.00000000E+00  0.00000000E+00  0.00000000E+00  0.00000000E+00
  0.00000000E+00  0.00000000E+00
Integer atomic weights                     I   N=          17
          12          12          12          12           1           1
           1           1           1           1           1           1
          16          14          11           1           1
Real atomic weights                        R   N=          17
  1.20000000E+01  1.20000000E+01  1.20000000E+01  1.20000000E+01  1.00782504E+00
  1.00782504E+00  1.00782504E+00  1.00782504E+00  1.00782504E+00  1.00782504E+00
  1.00782504E+00  1.00782504E+00  1.59949146E+01  1.40030740E+01  1.10093053E+01
  1.00782504E+00  1.00782504E+00
Atom fragment info                         I   N=          17
           0           0           0           0           0           0
           0           0           0           0           0           0
           0           0           0           0           0
Atom residue num                           I   N=          17
           0           0           0           0           0           0
           0           0           0           0           0           0
           0           0           0           0           0
Nuclear spins                              I   N=          17
           0           0           0           0           1           1
           1           1           1           1           1           1
           0           2           3           1           1
Nuclear ZEff                               R   N=          17
 -3.60000000E+00 -3.60000000E+00 -3.60000000E+00 -3.60000000E+00 -1.00000000E+00
 -1.00000000E+00 -1.00000000E+00 -1.00000000E+00 -1.00000000E+00 -1.00000000E+00
 -1.00000000E+00 -1.00000000E+00 -5.60000000E+00 -4.55000000E+00 -2.75000000E+00
 -1.00000000E+00 -1.00000000E+00
Nuclear QMom                               R   N=          17
  0.00000000E+00  0.00000000E+00  0.00000000E+00  0.00000000E+00  0.00000000E+00
  0.00000000E+00  0.00000000E+00  0.00000000E+00  0.00000000E+00  0.00000000E+00
  0.00000000E+00  0.00000000E+00  0.00000000E+00  2.04400000E+00  4.05900000E+00
  0.00000000E+00  0.00000000E+00
Nuclear GFac                               R   N=          17
  0.00000000E+00  0.00000000E+00  0.00000000E+00  0.00000000E+00  2.79284600E+00
  2.79284600E+00  2.79284600E+00  2.79284600E+00  2.79284600E+00  2.79284600E+00
  2.79284600E+00  2.79284600E+00  0.00000000E+00  4.03761000E-01  2.68863700E+00
  2.79284600E+00  2.79284600E+00
MicOpt                                     I   N=          17
          -1          -1          -1          -1          -1          -1
          -1          -1          -1          -1          -1          -1
          -1          -1          -1          -1          -1
Number of contracted shells                I               72
Number of primitive shells                 I              141
Pure/Cartesian d shells                    I                0
Pure/Cartesian f shells                    I                0
Highest angular momentum                   I                2
Largest degree of contraction              I                6
Shell types                                I   N=          72
           0          -1          -1          -1          -1          -2
           0          -1          -1          -1          -1          -2
           0          -1          -1          -1          -1          -2
           0          -1          -1          -1          -1          -2
           0           0           0           0           0           0
           0           0           0           0           0           0
           0           0           0           0           0           0
           0           0           0           0           0           0
           0          -1          -1          -1          -1          -2
           0          -1          -1          -1          -1          -2
           0          -1          -1          -1          -1          -2
           0           0           0           0           0           0
Number of primitives per shell             I   N=          72
           6           3           1           1           1           1
           6           3           1           1           1           1
           6           3           1           1           1           1
           6           3           1           1           1           1
           3           1           1           3           1           1
           3           1           1           3           1           1
           3           1           1           3           1           1
           3           1           1           3           1           1
           6           3           1           1           1           1
           6           3           1           1           1           1
           6           3           1           1           1           1
           3           1           1           3           1           1
Shell to atom map                          I   N=          72
           1           1           1           1           1           1
           2           2           2           2           2           2
           3           3           3           3           3           3
           4           4           4           4           4           4
           5           5           5           6           6           6
           7           7           7           8           8           8
           9           9           9          10          10          10
          11          11          11          12          12          12
          13          13          13          13          13          13
          14          14          14          14          14          14
          15          15          15          15          15          15
          16          16          16          17          17          17
Primitive exponents                        R   N=         141
  4.56324000E+03  6.82024000E+02  1.54973000E+02  4.44553000E+01  1.30290000E+01
  1.82773000E+00  2.09642000E+01  4.80331000E+00  1.45933000E+00  4.83456000E-01
  1.45585000E-01  4.38000000E-02  6.26000000E-01  4.56324000E+03  6.82024000E+02
  1.54973000E+02  4.44553000E+01  1.30290000E+01  1.82773000E+00  2.09642000E+01
  4.80331000E+00  1.45933000E+00  4.83456000E-01  1.45585000E-01  4.38000000E-02
  6.26000000E-01  4.56324000E+03  6.82024000E+02  1.54973000E+02  4.44553000E+01
  1.30290000E+01  1.82773000E+00  2.09642000E+01  4.80331000E+00  1.45933000E+00
  4.83456000E-01  1.45585000E-01  4.38000000E-02  6.26000000E-01  4.56324000E+03
  6.82024000E+02  1.54973000E+02  4.44553000E+01  1.30290000E+01  1.82773000E+00
  2.09642000E+01  4.80331000E+00  1.45933000E+00  4.83456000E-01  1.45585000E-01
  4.38000000E-02  6.26000000E-01  3.38650000E+01  5.09479000E+00  1.15879000E+00
  3.25840000E-01  1.02741000E-01  3.38650000E+01  5.09479000E+00  1.15879000E+00
  3.25840000E-01  1.02741000E-01  3.38650000E+01  5.09479000E+00  1.15879000E+00
  3.25840000E-01  1.02741000E-01  3.38650000E+01  5.09479000E+00  1.15879000E+00
  3.25840000E-01  1.02741000E-01  3.38650000E+01  5.09479000E+00  1.15879000E+00
  3.25840000E-01  1.02741000E-01  3.38650000E+01  5.09479000E+00  1.15879000E+00
  3.25840000E-01  1.02741000E-01  3.38650000E+01  5.09479000E+00  1.15879000E+00
  3.25840000E-01  1.02741000E-01  3.38650000E+01  5.09479000E+00  1.15879000E+00
  3.25840000E-01  1.02741000E-01  8.58850000E+03  1.29723000E+03  2.99296000E+02
  8.73771000E+01  2.56789000E+01  3.74004000E+00  4.21175000E+01  9.62837000E+00
  2.85332000E+00  9.05661000E-01  2.55611000E-01  8.45000000E-02  1.29200000E+00
  6.29348000E+03  9.49044000E+02  2.18776000E+02  6.36916000E+01  1.88282000E+01
  2.72023000E+00  3.06331000E+01  7.02614000E+00  2.11205000E+00  6.84009000E-01
  2.00878000E-01  6.39000000E-02  9.13000000E-01  2.85889000E+03  4.28140000E+02
  9.75282000E+01  2.79693000E+01  8.21577000E+00  1.11278000E+00  1.32415000E+01
  3.00166000E+00  9.12856000E-01  3.15454000E-01  9.88563000E-02  3.15000000E-02
  4.01000000E-01  3.38650000E+01  5.09479000E+00  1.15879000E+00  3.25840000E-01
  1.02741000E-01  3.38650000E+01  5.09479000E+00  1.15879000E+00  3.25840000E-01
  1.02741000E-01
Contraction coefficients                   R   N=         141
  1.96665025E-03  1.52306019E-02  7.61269097E-02  2.60801033E-01  6.16462078E-01
  2.21006028E-01  1.14660081E-01  9.19999648E-01 -3.03068213E-03  1.00000000E+00
  1.00000000E+00  1.00000000E+00  1.00000000E+00  1.96665025E-03  1.52306019E-02
  7.61269097E-02  2.60801033E-01  6.16462078E-01  2.21006028E-01  1.14660081E-01
  9.19999648E-01 -3.03068213E-03  1.00000000E+00  1.00000000E+00  1.00000000E+00
  1.00000000E+00  1.96665025E-03  1.52306019E-02  7.61269097E-02  2.60801033E-01
  6.16462078E-01  2.21006028E-01  1.14660081E-01  9.19999648E-01 -3.03068213E-03
  1.00000000E+00  1.00000000E+00  1.00000000E+00  1.00000000E+00  1.96665025E-03
  1.52306019E-02  7.61269097E-02  2.60801033E-01  6.16462078E-01  2.21006028E-01
  1.14660081E-01  9.19999648E-01 -3.03068213E-03  1.00000000E+00  1.00000000E+00
  1.00000000E+00  1.00000000E+00  2.54938145E-02  1.90373109E-01  8.52161486E-01
  1.00000000E+00  1.00000000E+00  2.54938145E-02  1.90373109E-01  8.52161486E-01
  1.00000000E+00  1.00000000E+00  2.54938145E-02  1.90373109E-01  8.52161486E-01
  1.00000000E+00  1.00000000E+00  2.54938145E-02  1.90373109E-01  8.52161486E-01
  1.00000000E+00  1.00000000E+00  2.54938145E-02  1.90373109E-01  8.52161486E-01
  1.00000000E+00  1.00000000E+00  2.54938145E-02  1.90373109E-01  8.52161486E-01
  1.00000000E+00  1.00000000E+00  2.54938145E-02  1.90373109E-01  8.52161486E-01
  1.00000000E+00  1.00000000E+00  2.54938145E-02  1.90373109E-01  8.52161486E-01
  1.00000000E+00  1.00000000E+00  1.89515008E-03  1.43859006E-02  7.07320031E-02
  2.40001011E-01  5.94797026E-01  2.80802012E-01  1.13889012E-01  9.20811101E-01
 -3.27447036E-03  1.00000000E+00  1.00000000E+00  1.00000000E+00  1.00000000E+00
  1.96978815E-03  1.49612859E-02  7.35005308E-02  2.48936766E-01  6.02459433E-01
  2.56201759E-01  1.11906080E-01  9.21666655E-01 -2.56919183E-03  1.00000000E+00
  1.00000000E+00  1.00000000E+00  1.00000000E+00  2.15374907E-03  1.65822928E-02
  8.21869644E-02  2.76617880E-01  6.29315727E-01  1.73769925E-01  1.17442942E-01
  9.18001549E-01 -2.65104870E-03  1.00000000E+00  1.00000000E+00  1.00000000E+00
  1.00000000E+00  2.54938145E-02  1.90373109E-01  8.52161486E-01  1.00000000E+00
  1.00000000E+00  2.54938145E-02  1.90373109E-01  8.52161486E-01  1.00000000E+00
  1.00000000E+00
P(S=P) Contraction coefficients            R   N=         141
  0.00000000E+00  0.00000000E+00  0.00000000E+00  0.00000000E+00  0.00000000E+00
  0.00000000E+00  4.02486927E-02  2.37593957E-01  8.15853851E-01  1.00000000E+00
  1.00000000E+00  1.00000000E+00  0.00000000E+00  0.00000000E+00  0.00000000E+00
  0.00000000E+00  0.00000000E+00  0.00000000E+00  0.00000000E+00  4.02486927E-02
  2.37593957E-01  8.15853851E-01  1.00000000E+00  1.00000000E+00  1.00000000E+00
  0.00000000E+00  0.00000000E+00  0.00000000E+00  0.00000000E+00  0.00000000E+00
  0.00000000E+00  0.00000000E+00  4.02486927E-02  2.37593957E-01  8.15853851E-01
  1.00000000E+00  1.00000000E+00  1.00000000E+00  0.00000000E+00  0.00000000E+00
  0.00000000E+00  0.00000000E+00  0.00000000E+00  0.00000000E+00  0.00000000E+00
  4.02486927E-02  2.37593957E-01  8.15853851E-01  1.00000000E+00  1.00000000E+00
  1.00000000E+00  0.00000000E+00  0.00000000E+00  0.00000000E+00  0.00000000E+00
  0.00000000E+00  0.00000000E+00  0.00000000E+00  0.00000000E+00  0.00000000E+00
  0.00000000E+00  0.00000000E+00  0.00000000E+00  0.00000000E+00  0.00000000E+00
  0.00000000E+00  0.00000000E+00  0.00000000E+00  0.00000000E+00  0.00000000E+00
  0.00000000E+00  0.00000000E+00  0.00000000E+00  0.00000000E+00  0.00000000E+00
  0.00000000E+00  0.00000000E+00  0.00000000E+00  0.00000000E+00  0.00000000E+00
  0.00000000E+00  0.00000000E+00  0.00000000E+00  0.00000000E+00  0.00000000E+00
  0.00000000E+00  0.00000000E+00  0.00000000E+00  0.00000000E+00  0.00000000E+00
  0.00000000E+00  0.00000000E+00  0.00000000E+00  0.00000000E+00  0.00000000E+00
  0.00000000E+00  0.00000000E+00  0.00000000E+00  3.65113974E-02  2.37152983E-01
  8.19701941E-01  1.00000000E+00  1.00000000E+00  1.00000000E+00  0.00000000E+00
  0.00000000E+00  0.00000000E+00  0.00000000E+00  0.00000000E+00  0.00000000E+00
  0.00000000E+00  3.83119186E-02  2.37403116E-01  8.17592398E-01  1.00000000E+00
  1.00000000E+00  1.00000000E+00  0.00000000E+00  0.00000000E+00  0.00000000E+00
  0.00000000E+00  0.00000000E+00  0.00000000E+00  0.00000000E+00  4.18099989E-02
  2.36574994E-01  8.16213978E-01  1.00000000E+00  1.00000000E+00  1.00000000E+00
  0.00000000E+00  0.00000000E+00  0.00000000E+00  0.00000000E+00  0.00000000E+00
  0.00000000E+00  0.00000000E+00  0.00000000E+00  0.00000000E+00  0.00000000E+00
  0.00000000E+00
Coordinates of each shell                  R   N=         216
 -4.34863095E-01  9.31635826E-01  2.27858802E+00 -4.34863095E-01  9.31635826E-01
  2.27858802E+00 -4.34863095E-01  9.31635826E-01  2.27858802E+00 -4.34863095E-01
  9.31635826E-01  2.27858802E+00 -4.34863095E-01  9.31635826E-01  2.27858802E+00
 -4.34863095E-01  9.31635826E-01  2.27858802E+00 -4.34863095E-01 -1.94561558E+00
  2.20424687E+00 -4.34863095E-01 -1.94561558E+00  2.20424687E+00 -4.34863095E-01
 -1.94561558E+00  2.20424687E+00 -4.34863095E-01 -1.94561558E+00  2.20424687E+00
 -4.34863095E-01 -1.94561558E+00  2.20424687E+00 -4.34863095E-01 -1.94561558E+00
  2.20424687E+00 -4.34863095E-01 -1.94561558E+00 -2.20424687E+00 -4.34863095E-01
 -1.94561558E+00 -2.20424687E+00 -4.34863095E-01 -1.94561558E+00 -2.20424687E+00
 -4.34863095E-01 -1.94561558E+00 -2.20424687E+00 -4.34863095E-01 -1.94561558E+00
 -2.20424687E+00 -4.34863095E-01 -1.94561558E+00 -2.20424687E+00 -4.34863095E-01
  9.31635826E-01 -2.27858802E+00 -4.34863095E-01  9.31635826E-01 -2.27858802E+00
 -4.34863095E-01  9.31635826E-01 -2.27858802E+00 -4.34863095E-01  9.31635826E-01
 -2.27858802E+00 -4.34863095E-01  9.31635826E-01 -2.27858802E+00 -4.34863095E-01
  9.31635826E-01 -2.27858802E+00  1.52493177E+00 -2.64254973E+00  2.25143744E+00
  1.52493177E+00 -2.64254973E+00  2.25143744E+00  1.52493177E+00 -2.64254973E+00
  2.25143744E+00 -1.46470528E+00 -2.73007072E+00  3.81283829E+00 -1.46470528E+00
 -2.73007072E+00  3.81283829E+00 -1.46470528E+00 -2.73007072E+00  3.81283829E+00
 -2.39622296E+00  1.60509593E+00  2.36863080E+00 -2.39622296E+00  1.60509593E+00
  2.36863080E+00 -2.39622296E+00  1.60509593E+00  2.36863080E+00  5.82236563E-01
  1.62436114E+00  3.93652903E+00  5.82236563E-01  1.62436114E+00  3.93652903E+00
  5.82236563E-01  1.62436114E+00  3.93652903E+00  1.52493177E+00 -2.64254973E+00
 -2.25143744E+00  1.52493177E+00 -2.64254973E+00 -2.25143744E+00  1.52493177E+00
 -2.64254973E+00 -2.25143744E+00 -1.46470528E+00 -2.73007072E+00 -3.81283829E+00
 -1.46470528E+00 -2.73007072E+00 -3.81283829E+00 -1.46470528E+00 -2.73007072E+00
 -3.81283829E+00  5.82236563E-01  1.62436114E+00 -3.93652903E+00  5.82236563E-01
  1.62436114E+00 -3.93652903E+00  5.82236563E-01  1.62436114E+00 -3.93652903E+00
 -2.39622296E+00  1.60509593E+00 -2.36863080E+00 -2.39622296E+00  1.60509593E+00
 -2.36863080E+00 -2.39622296E+00  1.60509593E+00 -2.36863080E+00 -1.67268748E+00
 -2.85552268E+00 -9.71836304E-19 -1.67268748E+00 -2.85552268E+00 -9.71836304E-19
 -1.67268748E+00 -2.85552268E+00 -9.71836304E-19 -1.67268748E+00 -2.85552268E+00
 -9.71836304E-19 -1.67268748E+00 -2.85552268E+00 -9.71836304E-19 -1.67268748E+00
 -2.85552268E+00 -9.71836304E-19  7.70758003E-01  1.92453686E+00  5.90307311E-19
  7.70758003E-01  1.92453686E+00  5.90307311E-19  7.70758003E-01  1.92453686E+00
  5.90307311E-19  7.70758003E-01  1.92453686E+00  5.90307311E-19  7.70758003E-01
  1.92453686E+00  5.90307311E-19  7.70758003E-01  1.92453686E+00  5.90307311E-19
  2.88443361E+00  3.50222486E+00  1.34301830E-18  2.88443361E+00  3.50222486E+00
  1.34301830E-18  2.88443361E+00  3.50222486E+00  1.34301830E-18  2.88443361E+00
  3.50222486E+00  1.34301830E-18  2.88443361E+00  3.50222486E+00  1.34301830E-18
  2.88443361E+00  3.50222486E+00  1.34301830E-18  3.75412994E+00  4.15769148E+00
  1.98507471E+00  3.75412994E+00  4.15769148E+00  1.98507471E+00  3.75412994E+00
  4.15769148E+00  1.98507471E+00  3.75412994E+00  4.15769148E+00 -1.98507471E+00
  3.75412994E+00  4.15769148E+00 -1.98507471E+00  3.75412994E+00  4.15769148E+00
 -1.98507471E+00
Constraint Structure                       R   N=          51
 -4.34863095E-01  9.31635826E-01  2.27858802E+00 -4.34863095E-01 -1.94561558E+00
  2.20424687E+00 -4.34863095E-01 -1.94561558E+00 -2.20424687E+00 -4.34863095E-01
  9.31635826E-01 -2.27858802E+00  1.52493177E+00 -2.64254973E+00  2.25143744E+00
 -1.46470528E+00 -2.73007072E+00  3.81283829E+00 -2.39622296E+00  1.60509593E+00
  2.36863080E+00  5.82236563E-01  1.62436114E+00  3.93652903E+00  1.52493177E+00
 -2.64254973E+00 -2.25143744E+00 -1.46470528E+00 -2.73007072E+00 -3.81283829E+00
  5.82236563E-01  1.62436114E+00 -3.93652903E+00 -2.39622296E+00  1.60509593E+00
 -2.36863080E+00 -1.67268748E+00 -2.85552268E+00 -9.71836304E-19  7.70758003E-01
  1.92453686E+00  5.90307311E-19  2.88443361E+00  3.50222486E+00  1.34301830E-18
  3.75412994E+00  4.15769148E+00  1.98507471E+00  3.75412994E+00  4.15769148E+00
 -1.98507471E+00
Num ILSW                                   I              100
ILSW                                       I   N=         100
           0           0           0           0           2           0
           0           0           0           0           0          -1
           0           0           0           0           0           0
           0           0           1           0           1           0
           1           0           0           0           0           0
           0           0      100000           0          -1           0
           0           0           0           0           0           0
           0           0           0           1           1           0
           0           0           1           0           0           0
           0           0           4          40           0           0
           0           0           0           0           0           0
           0           0           0           0           0           0
           0           0           0           0           0           0
           0           0           0           0           0           0
           0           0           0           0           0           0
           0           0           0           0           0           0
           0           0           0           0
Num RLSW                                   I               40
RLSW                                       R   N=          40
  1.00000000E+00  1.00000000E+00  1.00000000E+00  1.00000000E+00  1.00000000E+00
  0.00000000E+00  0.00000000E+00  1.00000000E+00  0.00000000E+00  0.00000000E+00
  0.00000000E+00  0.00000000E+00  1.00000000E+00  0.00000000E+00  0.00000000E+00
  0.00000000E+00  0.00000000E+00  1.00000000E+00  0.00000000E+00  0.00000000E+00
  0.00000000E+00  0.00000000E+00  1.00000000E+00  0.00000000E+00  0.00000000E+00
  0.00000000E+00  0.00000000E+00  1.00000000E+00  0.00000000E+00  0.00000000E+00
  0.00000000E+00  0.00000000E+00  1.00000000E+00  0.00000000E+00  0.00000000E+00
  0.00000000E+00  0.00000000E+00  0.00000000E+00  1.00000000E+00  1.00000000E+00
MxBond                                     I                4
NBond                                      I   N=          17
           4           4           4           4           1           1
           1           1           1           1           1           1
           2           3           3           1           1
IBond                                      I   N=          68
           2           7           8          14           1           5
           6          13           4           9          10          13
           3          11          12          14           2           0
           0           0           2           0           0           0
           1           0           0           0           1           0
           0           0           3           0           0           0
           3           0           0           0           4           0
           0           0           4           0           0           0
           2           3           0           0           1           4
          15           0          14          16          17           0
          15           0           0           0          15           0
           0           0
RBond                                      R   N=          68
  1.00000000E+00  1.00000000E+00  1.00000000E+00  1.00000000E+00  1.00000000E+00
  1.00000000E+00  1.00000000E+00  1.00000000E+00  1.00000000E+00  1.00000000E+00
  1.00000000E+00  1.00000000E+00  1.00000000E+00  1.00000000E+00  1.00000000E+00
  1.00000000E+00  1.00000000E+00  0.00000000E+00  0.00000000E+00  0.00000000E+00
  1.00000000E+00  0.00000000E+00  0.00000000E+00  0.00000000E+00  1.00000000E+00
  0.00000000E+00  0.00000000E+00  0.00000000E+00  1.00000000E+00  0.00000000E+00
  0.00000000E+00  0.00000000E+00  1.00000000E+00  0.00000000E+00  0.00000000E+00
  0.00000000E+00  1.00000000E+00  0.00000000E+00  0.00000000E+00  0.00000000E+00
  1.00000000E+00  0.00000000E+00  0.00000000E+00  0.00000000E+00  1.00000000E+00
  0.00000000E+00  0.00000000E+00  0.00000000E+00  1.00000000E+00  1.00000000E+00
  0.00000000E+00  0.00000000E+00  1.00000000E+00  1.00000000E+00  1.00000000E+00
  0.00000000E+00  1.00000000E+00  1.00000000E+00  1.00000000E+00  0.00000000E+00
  1.00000000E+00  0.00000000E+00  0.00000000E+00  0.00000000E+00  1.00000000E+00
  0.00000000E+00  0.00000000E+00  0.00000000E+00
Virial Ratio                               R      2.000833823928197E+00
SCF Energy                                 R     -3.113679459483032E+02
MP2 Energy                                 R     -3.123692883149396E+02
Total Energy                               R     -3.123692883149396E+02
Post-SCF wavefunction norm                 R      1.623188030443212E+00
RMS Force                                  R      1.473757078391231E-05
RMS Density                                R      1.941192431658150E-09
External E-field                           R   N=          35
  0.00000000E+00  0.00000000E+00  0.00000000E+00  0.00000000E+00  0.00000000E+00
  0.00000000E+00  0.00000000E+00  0.00000000E+00  0.00000000E+00  0.00000000E+00
  0.00000000E+00  0.00000000E+00  0.00000000E+00  0.00000000E+00  0.00000000E+00
  0.00000000E+00  0.00000000E+00  0.00000000E+00  0.00000000E+00  0.00000000E+00
  0.00000000E+00  0.00000000E+00  0.00000000E+00  0.00000000E+00  0.00000000E+00
  0.00000000E+00  0.00000000E+00  0.00000000E+00  0.00000000E+00  0.00000000E+00
  0.00000000E+00  0.00000000E+00  0.00000000E+00  0.00000000E+00  0.00000000E+00
IOpCl                                      I                0
IROHF                                      I                0
Alpha Orbital Energies                     R   N=         184
 -2.05613138E+01 -1.55657071E+01 -1.12805602E+01 -1.12805425E+01 -1.12635225E+01
 -1.12635076E+01 -7.58509326E+00 -1.38517743E+00 -1.22516460E+00 -1.04658127E+00
 -9.45096842E-01 -8.87968254E-01 -8.09317080E-01 -7.28468196E-01 -6.51425872E-01
 -6.50804536E-01 -6.46068312E-01 -6.30846795E-01 -6.03844655E-01 -5.58927248E-01
 -5.48723135E-01 -5.13832544E-01 -5.10835505E-01 -4.71225361E-01 -4.60251620E-01
 -4.46115228E-01 -3.75735345E-01  6.06586153E-02  6.46025290E-02  7.03178421E-02
  7.75363121E-02  9.51827546E-02  9.61005348E-02  1.02160658E-01  1.10491854E-01
  1.15909308E-01  1.37340066E-01  1.38885975E-01  1.49852433E-01  1.56153462E-01
  1.60919349E-01  1.73610442E-01  1.79571171E-01  1.84832892E-01  1.88511848E-01
  2.03427911E-01  2.13544591E-01  2.21078832E-01  2.55774027E-01  2.79753951E-01
  3.10031612E-01  3.13553475E-01  3.15358940E-01  3.21275519E-01  3.30926482E-01
  3.32099426E-01  3.56678201E-01  3.56697124E-01  3.64793234E-01  3.72214272E-01
  3.73875435E-01  3.85540583E-01  3.97970106E-01  4.05848978E-01  4.09889115E-01
  4.19612890E-01  4.26019033E-01  4.42153588E-01  4.43441153E-01  4.56358049E-01
  4.62502037E-01  4.79935112E-01  5.12221010E-01  5.84831655E-01  5.88054773E-01
  6.24741718E-01  6.49019552E-01  6.53014186E-01  6.85488297E-01  6.86255951E-01
  6.99401828E-01  7.37454195E-01  7.65929208E-01  7.70350206E-01  7.77436857E-01
  8.09512663E-01  8.17207232E-01  8.67911464E-01  8.76296741E-01  8.89331622E-01
  8.96444863E-01  8.96985532E-01  9.11450137E-01  9.14239886E-01  9.18440249E-01
  9.32104703E-01  9.42560923E-01  9.47148739E-01  1.03959947E+00  1.07027860E+00
  1.10747213E+00  1.11020925E+00  1.14985978E+00  1.15655448E+00  1.26080272E+00
  1.27422691E+00  1.35128440E+00  1.38552055E+00  1.39447971E+00  1.42798972E+00
  1.45120790E+00  1.45184475E+00  1.50968701E+00  1.56245825E+00  1.56970746E+00
  1.60308064E+00  1.67565119E+00  1.70631227E+00  1.71238856E+00  1.82752074E+00
  1.86402896E+00  1.87207050E+00  1.87945825E+00  1.91420660E+00  1.93356975E+00
  1.94440695E+00  1.98253142E+00  1.99157159E+00  2.01830474E+00  2.06813981E+00
  2.11423009E+00  2.13566854E+00  2.17647509E+00  2.19139696E+00  2.26052463E+00
  2.37438952E+00  2.41594916E+00  2.45250047E+00  2.52432366E+00  2.65940092E+00
  2.72494335E+00  2.76691409E+00  2.80361204E+00  2.84641595E+00  2.87262637E+00
  2.87833050E+00  2.92786917E+00  2.95179079E+00  2.96113524E+00  3.00956799E+00
  3.05467086E+00  3.09275199E+00  3.09803740E+00  3.22496665E+00  3.29977651E+00
  3.30991433E+00  3.35055894E+00  3.37639883E+00  3.44855531E+00  3.57234294E+00
  3.57975012E+00  3.63638642E+00  3.73645823E+00  3.79126543E+00  3.80743333E+00
  3.86210487E+00  3.89585843E+00  4.20832809E+00  4.23051569E+00  4.39395097E+00
  4.45241294E+00  4.59402183E+00  5.13039264E+00  5.21974944E+00  5.63288657E+00
  5.89623578E+00  6.14532039E+00  1.54488146E+01  2.46655186E+01  2.47530097E+01
  2.48387343E+01  2.49604537E+01  3.69149080E+01  5.16060356E+01
Alpha MO coefficients                      R   N=       33856
  1.36993834E-06 -9.98516551E-07 -2.24582781E-06  6.47847412E-06 -1.72497249E-06
  8.95954176E-06  1.24189665E-05 -1.15728731E-05  9.61329513E-06 -7.92237311E-05
  2.88608448E-05  5.33519418E-05  1.58567157E-05  4.13965809E-04 -2.13143236E-04
 -2.52993951E-04  6.51851630E-06 -5.38529105E-06 -4.61759655E-06 -6.19820011E-06
 -1.01697527E-05 -1.01066103E-05 -1.45051751E-06 -3.56139883E-05 -1.71482209E-05
 -6.91162425E-06 -1.85641613E-05  1.34639376E-04 -9.01869945E-05 -9.35057315E-05
 -1.98444481E-04 -6.50120095E-05 -4.93631547E-05  6.56957484E-05  7.78437336E-05