 Entering Link 1 = C:\G09W\l1.exe PID=      5696.
  
 Copyright (c) 1988,1990,1992,1993,1995,1998,2003,2009,2010,
            Gaussian, Inc.  All Rights Reserved.
  
 This is part of the Gaussian(R) 09 program.  It is based on
 the Gaussian(R) 03 system (copyright 2003, Gaussian, Inc.),
 the Gaussian(R) 98 system (copyright 1998, Gaussian, Inc.),
 the Gaussian(R) 94 system (copyright 1995, Gaussian, Inc.),
 the Gaussian 92(TM) system (copyright 1992, Gaussian, Inc.),
 the Gaussian 90(TM) system (copyright 1990, Gaussian, Inc.),
 the Gaussian 88(TM) system (copyright 1988, Gaussian, Inc.),
 the Gaussian 86(TM) system (copyright 1986, Carnegie Mellon
 University), and the Gaussian 82(TM) system (copyright 1983,
 Carnegie Mellon University). Gaussian is a federally registered
 trademark of Gaussian, Inc.
  
 This software contains proprietary and confidential information,
 including trade secrets, belonging to Gaussian, Inc.
  
 This software is provided under written license and may be
 used, copied, transmitted, or stored only in accord with that
 written license.
  
 The following legend is applicable only to US Government
 contracts under FAR:
  
                    RESTRICTED RIGHTS LEGEND
  
 Use, reproduction and disclosure by the US Government is
 subject to restrictions as set forth in subparagraphs (a)
 and (c) of the Commercial Computer Software - Restricted
 Rights clause in FAR 52.227-19.
  
 Gaussian, Inc.
 340 Quinnipiac St., Bldg. 40, Wallingford CT 06492
  
  
 ---------------------------------------------------------------
 Warning -- This program may not be used in any manner that
 competes with the business of Gaussian, Inc. or will provide
 assistance to any competitor of Gaussian, Inc.  The licensee
 of this program is prohibited from giving any competitor of
 Gaussian, Inc. access to this program.  By using this program,
 the user acknowledges that Gaussian, Inc. is engaged in the
 business of creating and licensing software in the field of
 computational chemistry and represents and warrants to the
 licensee that it is not a competitor of Gaussian, Inc. and that
 it will not use this program in any manner prohibited above.
 ---------------------------------------------------------------
  

 Cite this work as:
 Gaussian 09, Revision B.01,
 M. J. Frisch, G. W. Trucks, H. B. Schlegel, G. E. Scuseria, 
 M. A. Robb, J. R. Cheeseman, G. Scalmani, V. Barone, B. Mennucci, 
 G. A. Petersson, H. Nakatsuji, M. Caricato, X. Li, H. P. Hratchian, 
 A. F. Izmaylov, J. Bloino, G. Zheng, J. L. Sonnenberg, M. Hada, 
 M. Ehara, K. Toyota, R. Fukuda, J. Hasegawa, M. Ishida, T. Nakajima, 
 Y. Honda, O. Kitao, H. Nakai, T. Vreven, J. A. Montgomery, Jr., 
 J. E. Peralta, F. Ogliaro, M. Bearpark, J. J. Heyd, E. Brothers, 
 K. N. Kudin, V. N. Staroverov, T. Keith, R. Kobayashi, J. Normand, 
 K. Raghavachari, A. Rendell, J. C. Burant, S. S. Iyengar, J. Tomasi, 
 M. Cossi, N. Rega, J. M. Millam, M. Klene, J. E. Knox, J. B. Cross, 
 V. Bakken, C. Adamo, J. Jaramillo, R. Gomperts, R. E. Stratmann, 
 O. Yazyev, A. J. Austin, R. Cammi, C. Pomelli, J. W. Ochterski, 
 R. L. Martin, K. Morokuma, V. G. Zakrzewski, G. A. Voth, 
 P. Salvador, J. J. Dannenberg, S. Dapprich, A. D. Daniels, 
 O. Farkas, J. B. Foresman, J. V. Ortiz, J. Cioslowski, 
 and D. J. Fox, Gaussian, Inc., Wallingford CT, 2010.
 
 ******************************************
 Gaussian 09:  IA32W-G09RevB.01 12-Aug-2010
                18-Sep-2020 
 ******************************************
 %chk=C:\GaussianCalcs\AA-CHEM382\DE_Borane_morpholine\DeH_Borane_Morpholine.chk
 --------------------
 # hf/6-31g* opt freq
 --------------------
 1/18=20,19=15,38=1/1,3;
 2/9=110,12=2,17=6,18=5,40=1/2;
 3/5=1,6=6,7=1,11=9,16=1,25=1,30=1,71=1/1,2,3;
 4//1;
 5/5=2,38=5/2;
 6/7=2,8=2,9=2,10=2,28=1/1;
 7//1,2,3,16;
 1/18=20,19=15/3(2);
 2/9=110/2;
 99//99;
 2/9=110/2;
 3/5=1,6=6,7=1,11=9,16=1,25=1,30=1,71=1/1,2,3;
 4/5=5,16=3/1;
 5/5=2,38=5/2;
 7//1,2,3,16;
 1/18=20,19=15/3(-5);
 2/9=110/2;
 6/7=2,8=2,9=2,10=2,19=2,28=1/1;
 99/9=1/99;
 --------------
 Morpholine BH2
 --------------
 Symbolic Z-matrix:
 Charge =  0 Multiplicity = 1
 C                     0.17259   0.36829  -1.19352 
 C                    -0.19611  -1.12686  -1.17549 
 C                    -0.19611  -1.12686   1.17549 
 C                     0.17259   0.36829   1.19352 
 H                    -1.26098  -1.23147  -1.17344 
 H                     0.20776  -1.60277  -2.04457 
 H                     1.23742   0.47335  -1.19579 
 H                    -0.23231   0.82735  -2.07114 
 H                    -1.26098  -1.23147   1.17344 
 H                     0.20776  -1.60277   2.04457 
 H                    -0.23231   0.82735   2.07114 
 H                     1.23742   0.47335   1.19579 
 O                     0.34555  -1.74228   0. 
 N                    -0.38159   1.01646   0. 
 B                     0.00002   2.54969   0. 
 H                     0.14251   3.12222  -1.02191 
 H                     0.14251   3.12222   1.02191 
 

 GradGradGradGradGradGradGradGradGradGradGradGradGradGradGradGradGradGrad
 Berny optimization.
 Initialization pass.
                           ----------------------------
                           !    Initial Parameters    !
                           ! (Angstroms and Degrees)  !
 --------------------------                            --------------------------
 ! Name  Definition              Value          Derivative Info.                !
 --------------------------------------------------------------------------------
 ! R1    R(1,2)                  1.54           estimate D2E/DX2                !
 ! R2    R(1,7)                  1.07           estimate D2E/DX2                !
 ! R3    R(1,8)                  1.07           estimate D2E/DX2                !
 ! R4    R(1,14)                 1.4669         estimate D2E/DX2                !
 ! R5    R(2,5)                  1.07           estimate D2E/DX2                !
 ! R6    R(2,6)                  1.07           estimate D2E/DX2                !
 ! R7    R(2,13)                 1.4332         estimate D2E/DX2                !
 ! R8    R(3,4)                  1.54           estimate D2E/DX2                !
 ! R9    R(3,9)                  1.07           estimate D2E/DX2                !
 ! R10   R(3,10)                 1.07           estimate D2E/DX2                !
 ! R11   R(3,13)                 1.4332         estimate D2E/DX2                !
 ! R12   R(4,11)                 1.07           estimate D2E/DX2                !
 ! R13   R(4,12)                 1.07           estimate D2E/DX2                !
 ! R14   R(4,14)                 1.4669         estimate D2E/DX2                !
 ! R15   R(14,15)                1.58           estimate D2E/DX2                !
 ! R16   R(15,16)                1.18           estimate D2E/DX2                !
 ! R17   R(15,17)                1.18           estimate D2E/DX2                !
 ! A1    A(2,1,7)              109.4872         estimate D2E/DX2                !
 ! A2    A(2,1,8)              109.6043         estimate D2E/DX2                !
 ! A3    A(2,1,14)             109.2091         estimate D2E/DX2                !
 ! A4    A(7,1,8)              109.4341         estimate D2E/DX2                !
 ! A5    A(7,1,14)             109.5311         estimate D2E/DX2                !
 ! A6    A(8,1,14)             109.5615         estimate D2E/DX2                !
 ! A7    A(1,2,5)              109.4634         estimate D2E/DX2                !
 ! A8    A(1,2,6)              109.3868         estimate D2E/DX2                !
 ! A9    A(1,2,13)             109.6346         estimate D2E/DX2                !
 ! A10   A(5,2,6)              109.4938         estimate D2E/DX2                !
 ! A11   A(5,2,13)             109.4256         estimate D2E/DX2                !
 ! A12   A(6,2,13)             109.4231         estimate D2E/DX2                !
 ! A13   A(4,3,9)              109.4634         estimate D2E/DX2                !
 ! A14   A(4,3,10)             109.3868         estimate D2E/DX2                !
 ! A15   A(4,3,13)             109.6346         estimate D2E/DX2                !
 ! A16   A(9,3,10)             109.4938         estimate D2E/DX2                !
 ! A17   A(9,3,13)             109.4256         estimate D2E/DX2                !
 ! A18   A(10,3,13)            109.4231         estimate D2E/DX2                !
 ! A19   A(3,4,11)             109.6043         estimate D2E/DX2                !
 ! A20   A(3,4,12)             109.4872         estimate D2E/DX2                !
 ! A21   A(3,4,14)             109.2091         estimate D2E/DX2                !
 ! A22   A(11,4,12)            109.4341         estimate D2E/DX2                !
 ! A23   A(11,4,14)            109.5615         estimate D2E/DX2                !
 ! A24   A(12,4,14)            109.5311         estimate D2E/DX2                !
 ! A25   A(2,13,3)             110.2123         estimate D2E/DX2                !
 ! A26   A(1,14,4)             108.9073         estimate D2E/DX2                !
 ! A27   A(1,14,15)            109.7272         estimate D2E/DX2                !
 ! A28   A(4,14,15)            109.7272         estimate D2E/DX2                !
 ! A29   A(14,15,16)           120.0            estimate D2E/DX2                !
 ! A30   A(14,15,17)           120.0            estimate D2E/DX2                !
 ! A31   A(16,15,17)           120.0            estimate D2E/DX2                !
 ! D1    D(7,1,2,5)           -179.9874         estimate D2E/DX2                !
 ! D2    D(7,1,2,6)            -60.0162         estimate D2E/DX2                !
 ! D3    D(7,1,2,13)            59.973          estimate D2E/DX2                !
 ! D4    D(8,1,2,5)            -59.9415         estimate D2E/DX2                !
 ! D5    D(8,1,2,6)             60.0297         estimate D2E/DX2                !
 ! D6    D(8,1,2,13)          -179.9811         estimate D2E/DX2                !
 ! D7    D(14,1,2,5)            60.0896         estimate D2E/DX2                !
 ! D8    D(14,1,2,6)          -179.9392         estimate D2E/DX2                !
 ! D9    D(14,1,2,13)          -59.9499         estimate D2E/DX2                !
 ! D10   D(2,1,14,4)            59.4063         estimate D2E/DX2                !
 ! D11   D(2,1,14,15)          179.5295         estimate D2E/DX2                !
 ! D12   D(7,1,14,4)           -60.4896         estimate D2E/DX2                !
 ! D13   D(7,1,14,15)           59.6336         estimate D2E/DX2                !
 ! D14   D(8,1,14,4)           179.4637         estimate D2E/DX2                !
 ! D15   D(8,1,14,15)          -60.413          estimate D2E/DX2                !
 ! D16   D(1,2,13,3)            60.6724         estimate D2E/DX2                !
 ! D17   D(5,2,13,3)           -59.3902         estimate D2E/DX2                !
 ! D18   D(6,2,13,3)          -179.3605         estimate D2E/DX2                !
 ! D19   D(9,3,4,11)            59.9415         estimate D2E/DX2                !
 ! D20   D(9,3,4,12)           179.9874         estimate D2E/DX2                !
 ! D21   D(9,3,4,14)           -60.0896         estimate D2E/DX2                !
 ! D22   D(10,3,4,11)          -60.0297         estimate D2E/DX2                !
 ! D23   D(10,3,4,12)           60.0162         estimate D2E/DX2                !
 ! D24   D(10,3,4,14)          179.9392         estimate D2E/DX2                !
 ! D25   D(13,3,4,11)          179.9811         estimate D2E/DX2                !
 ! D26   D(13,3,4,12)          -59.973          estimate D2E/DX2                !
 ! D27   D(13,3,4,14)           59.9499         estimate D2E/DX2                !
 ! D28   D(4,3,13,2)           -60.6724         estimate D2E/DX2                !
 ! D29   D(9,3,13,2)            59.3902         estimate D2E/DX2                !
 ! D30   D(10,3,13,2)          179.3605         estimate D2E/DX2                !
 ! D31   D(3,4,14,1)           -59.4063         estimate D2E/DX2                !
 ! D32   D(3,4,14,15)         -179.5295         estimate D2E/DX2                !
 ! D33   D(11,4,14,1)         -179.4637         estimate D2E/DX2                !
 ! D34   D(11,4,14,15)          60.413          estimate D2E/DX2                !
 ! D35   D(12,4,14,1)           60.4896         estimate D2E/DX2                !
 ! D36   D(12,4,14,15)         -59.6336         estimate D2E/DX2                !
 ! D37   D(1,14,15,16)          30.1886         estimate D2E/DX2                !
 ! D38   D(1,14,15,17)        -149.8114         estimate D2E/DX2                !
 ! D39   D(4,14,15,16)         149.8114         estimate D2E/DX2                !
 ! D40   D(4,14,15,17)         -30.1886         estimate D2E/DX2                !
 --------------------------------------------------------------------------------
 Trust Radius=3.00D-01 FncErr=1.00D-07 GrdErr=1.00D-07
 Number of steps in this run=     98 maximum allowed number of steps=    102.
 GradGradGradGradGradGradGradGradGradGradGradGradGradGradGradGradGradGrad

                          Input orientation:                          
 ---------------------------------------------------------------------
 Center     Atomic      Atomic             Coordinates (Angstroms)
 Number     Number       Type             X           Y           Z
 ---------------------------------------------------------------------
      1          6           0        0.172593    0.368294   -1.193516
      2          6           0       -0.196107   -1.126856   -1.175489
      3          6           0       -0.196107   -1.126856    1.175489
      4          6           0        0.172593    0.368294    1.193516
      5          1           0       -1.260979   -1.231472   -1.173441
      6          1           0        0.207759   -1.602771   -2.044567
      7          1           0        1.237420    0.473349   -1.195792
      8          1           0       -0.232315    0.827350   -2.071136
      9          1           0       -1.260979   -1.231472    1.173441
     10          1           0        0.207759   -1.602771    2.044567
     11          1           0       -0.232315    0.827350    2.071136
     12          1           0        1.237420    0.473349    1.195792
     13          8           0        0.345553   -1.742284    0.000000
     14          7           0       -0.381590    1.016462    0.000000
     15          5           0        0.000016    2.549687    0.000000
     16          1           0        0.142515    3.122220   -1.021910
     17          1           0        0.142515    3.122220    1.021910
 ---------------------------------------------------------------------
                    Distance matrix (angstroms):
                    1          2          3          4          5
     1  C    0.000000
     2  C    1.540045   0.000000
     3  C    2.825526   2.350978   0.000000
     4  C    2.387031   2.825526   1.540045   0.000000
     5  H    2.148204   1.070000   2.581156   3.196382   0.000000
     6  H    2.147236   1.070000   3.279995   3.790978   1.747546
     7  H    1.070000   2.148504   3.199786   2.617954   3.024717
     8  H    1.070000   2.149980   3.789566   3.321541   2.470375
     9  H    3.196382   2.581156   1.070000   2.148204   2.346881
    10  H    3.790978   3.279995   1.070000   2.147236   3.556772
    11  H    3.321541   3.789566   2.149980   1.070000   3.977961
    12  H    2.617954   3.199786   2.148504   1.070000   3.842092
    13  O    2.430830   1.433151   1.433151   2.430830   2.053980
    14  N    1.466874   2.451529   2.451529   1.466874   2.683933
    15  B    2.492536   3.864868   3.864868   2.492536   4.155025
    16  H    2.759431   4.265313   4.795610   3.534561   4.576831
    17  H    3.534561   4.795610   4.265313   2.759431   5.073853
                    6          7          8          9         10
     6  H    0.000000
     7  H    2.467974   0.000000
     8  H    2.469789   1.746902   0.000000
     9  H    3.556772   3.842092   3.977961   0.000000
    10  H    4.089134   3.983767   4.799809   1.747546   0.000000
    11  H    4.799809   3.599758   4.142272   2.470375   2.469789
    12  H    3.983767   2.391583   3.599758   3.024717   2.467974
    13  O    2.053949   2.671025   3.350605   2.053980   2.053949
    14  N    3.374607   2.084727   2.085102   2.683933   3.374607
    15  B    4.633176   2.696714   2.703706   4.155025   4.633176
    16  H    4.834835   2.871510   2.551039   5.073853   5.633212
    17  H    5.633212   3.624022   3.869607   4.576831   4.834835
                   11         12         13         14         15
    11  H    0.000000
    12  H    1.746902   0.000000
    13  O    3.350605   2.671025   0.000000
    14  N    2.085102   2.084727   2.852966   0.000000
    15  B    2.703706   2.696714   4.305857   1.580000   0.000000
    16  H    3.869607   3.624022   4.974829   2.398583   1.180000
    17  H    2.551039   2.871510   4.974829   2.398583   1.180000
                   16         17
    16  H    0.000000
    17  H    2.043820   0.000000
 Stoichiometry    C4H10BNO
 Framework group  CS[SG(BNO),X(C4H10)]
 Deg. of freedom    24
 Full point group                 CS      NOp   2
 Largest Abelian subgroup         CS      NOp   2
 Largest concise Abelian subgroup CS      NOp   2
                         Standard orientation:                         
 ---------------------------------------------------------------------
 Center     Atomic      Atomic             Coordinates (Angstroms)
 Number     Number       Type             X           Y           Z
 ---------------------------------------------------------------------
      1          6           0       -0.079394    0.398905    1.193516
      2          6           0       -0.079394   -1.141034    1.175489
      3          6           0       -0.079394   -1.141034   -1.175489
      4          6           0       -0.079394    0.398905   -1.193516
      5          1           0        0.929458   -1.497564    1.173441
      6          1           0       -0.585460   -1.506412    2.044567
      7          1           0       -1.088098    0.755851    1.195792
      8          1           0        0.423646    0.747664    2.071136
      9          1           0        0.929458   -1.497564   -1.173441
     10          1           0       -0.585460   -1.506412   -2.044567
     11          1           0        0.423646    0.747664   -2.071136
     12          1           0       -1.088098    0.755851   -1.195792
     13          8           0       -0.752648   -1.608875    0.000000
     14          7           0        0.613858    0.895536    0.000000
     15          5           0        0.610442    2.475533    0.000000
     16          1           0        0.609167    3.065531    1.021910
     17          1           0        0.609167    3.065531   -1.021910
 ---------------------------------------------------------------------
 Rotational constants (GHZ):      4.8496242      2.4048613      1.7408313
 Standard basis: 6-31G(d) (6D, 7F)
 There are    73 symmetry adapted basis functions of A'  symmetry.
 There are    52 symmetry adapted basis functions of A"  symmetry.
 Integral buffers will be    262144 words long.
 Raffenetti 1 integral format.
 Two-electron integral symmetry is turned on.
   125 basis functions,   236 primitive gaussians,   125 cartesian basis functions
    27 alpha electrons       27 beta electrons
       nuclear repulsion energy       314.8344749817 Hartrees.
 NAtoms=   17 NActive=   17 NUniq=   10 SFac= 2.89D+00 NAtFMM=   50 NAOKFM=F Big=F
 One-electron integrals computed using PRISM.
 NBasis=   125 RedAO= T  NBF=    73    52
 NBsUse=   125 1.00D-06 NBFU=    73    52
 Harris functional with IExCor=  205 diagonalized for initial guess.
 ExpMin= 1.27D-01 ExpMax= 5.48D+03 ExpMxC= 8.25D+02 IAcc=1 IRadAn=         1 AccDes= 0.00D+00
 HarFok:  IExCor=  205 AccDes= 0.00D+00 IRadAn=         1 IDoV= 1
 ScaDFX=  1.000000  1.000000  1.000000  1.000000
 FoFCou: FMM=F IPFlag=           0 FMFlag=      100000 FMFlg1=           0
         NFxFlg=           0 DoJE=T BraDBF=F KetDBF=T FulRan=T
         Omega=  0.000000  0.000000  1.000000  0.000000  0.000000 ICntrl=     500 IOpCl=  0
         NMat0=    1 NMatS0=    1 NMatT0=    0 NMatD0=    1 NMtDS0=    0 NMtDT0=    0
         I1Cent=           4 NGrid=           0.
 Petite list used in FoFCou.
 Initial guess orbital symmetries:
       Occupied  (A') (A') (A") (A') (A") (A') (A') (A') (A') (A")
                 (A') (A") (A') (A') (A") (A") (A') (A') (A') (A")
                 (A') (A") (A") (A") (A') (A') (A')
       Virtual   (A') (A') (A') (A') (A") (A") (A') (A") (A') (A')
                 (A') (A") (A") (A') (A") (A') (A") (A") (A') (A")
                 (A') (A') (A") (A') (A') (A') (A") (A") (A') (A')
                 (A") (A') (A") (A") (A') (A') (A') (A") (A") (A')
                 (A') (A") (A') (A') (A") (A") (A') (A') (A") (A')
                 (A") (A') (A') (A") (A') (A") (A") (A') (A") (A')
                 (A') (A') (A') (A") (A') (A") (A") (A') (A') (A")
                 (A") (A') (A") (A') (A') (A") (A") (A') (A") (A')
                 (A") (A') (A') (A") (A') (A') (A") (A') (A') (A")
                 (A") (A') (A') (A') (A") (A') (A') (A")
 The electronic state of the initial guess is 1-A'.
 Requested convergence on RMS density matrix=1.00D-08 within 128 cycles.
 Requested convergence on MAX density matrix=1.00D-06.
 Requested convergence on             energy=1.00D-06.
 No special actions if energy rises.
 Keep R1 ints in memory in canonical form, NReq=32070653.
 SCF Done:  E(RHF) =  -311.261006079     A.U. after   13 cycles
             Convg  =    0.6919D-08             -V/T =  2.0015

 **********************************************************************

            Population analysis using the SCF density.

 **********************************************************************

 Orbital symmetries:
       Occupied  (A') (A') (A") (A') (A") (A') (A') (A') (A') (A")
                 (A') (A") (A') (A') (A') (A") (A') (A') (A") (A")
                 (A') (A") (A") (A") (A') (A') (A')
       Virtual   (A') (A') (A') (A") (A') (A') (A') (A") (A") (A')
                 (A") (A') (A") (A') (A") (A") (A') (A") (A') (A")
                 (A') (A') (A") (A") (A') (A') (A') (A") (A') (A')
                 (A") (A') (A") (A") (A') (A') (A") (A') (A") (A')
                 (A') (A") (A') (A') (A") (A") (A') (A') (A") (A')
                 (A") (A') (A') (A") (A') (A") (A") (A') (A") (A')
                 (A') (A') (A') (A") (A') (A") (A") (A') (A') (A")
                 (A") (A") (A') (A') (A') (A") (A") (A') (A") (A')
                 (A") (A') (A') (A") (A') (A') (A") (A') (A') (A")
                 (A") (A') (A') (A') (A") (A') (A') (A")
 The electronic state is 1-A'.
 Alpha  occ. eigenvalues --  -20.55504 -15.55534 -11.26659 -11.26657 -11.24607
 Alpha  occ. eigenvalues --  -11.24606  -7.61960  -1.36281  -1.19894  -1.03423
 Alpha  occ. eigenvalues --   -0.92348  -0.87768  -0.78896  -0.71972  -0.64548
 Alpha  occ. eigenvalues --   -0.64195  -0.64185  -0.60873  -0.60522  -0.55113
 Alpha  occ. eigenvalues --   -0.53096  -0.51772  -0.50119  -0.47660  -0.45307
 Alpha  occ. eigenvalues --   -0.41121  -0.36829
 Alpha virt. eigenvalues --    0.11238   0.24508   0.26874   0.28349   0.29041
 Alpha virt. eigenvalues --    0.30329   0.31808   0.33005   0.34124   0.34637
 Alpha virt. eigenvalues --    0.35225   0.35499   0.37113   0.40329   0.43755
 Alpha virt. eigenvalues --    0.44225   0.45009   0.47004   0.61178   0.64952
 Alpha virt. eigenvalues --    0.66516   0.71395   0.77480   0.78373   0.79695
 Alpha virt. eigenvalues --    0.81156   0.83649   0.85755   0.88025   0.91663
 Alpha virt. eigenvalues --    0.95092   0.96535   1.04248   1.11412   1.11496
 Alpha virt. eigenvalues --    1.13503   1.14116   1.15219   1.15429   1.17324
 Alpha virt. eigenvalues --    1.18995   1.19084   1.21043   1.24151   1.25413
 Alpha virt. eigenvalues --    1.26322   1.31408   1.34871   1.37108   1.43405
 Alpha virt. eigenvalues --    1.51164   1.52388   1.56742   1.61693   1.65197
 Alpha virt. eigenvalues --    1.69512   1.77759   1.87283   1.89448   1.90297
 Alpha virt. eigenvalues --    1.94696   1.98792   2.02038   2.07153   2.09698
 Alpha virt. eigenvalues --    2.15504   2.18578   2.20494   2.26589   2.31885
 Alpha virt. eigenvalues --    2.33226   2.39430   2.42615   2.43256   2.45783
 Alpha virt. eigenvalues --    2.46075   2.55081   2.62501   2.68103   2.73719
 Alpha virt. eigenvalues --    2.76049   2.79158   2.81809   2.85292   2.92172
 Alpha virt. eigenvalues --    3.01973   3.08951   3.10081   3.15454   3.18123
 Alpha virt. eigenvalues --    3.30985   3.85205   4.34089   4.47625   4.64728
 Alpha virt. eigenvalues --    4.76160   4.92238   4.96614
          Condensed to atoms (all electrons):
              1          2          3          4          5          6
     1  C    5.001919   0.363552  -0.011222  -0.063757  -0.053658  -0.043149
     2  C    0.363552   4.804644  -0.042044  -0.011222   0.393879   0.402989
     3  C   -0.011222  -0.042044   4.804644   0.363552  -0.007351   0.004426
     4  C   -0.063757  -0.011222   0.363552   5.001919   0.000273  -0.000480
     5  H   -0.053658   0.393879  -0.007351   0.000273   0.564180  -0.029994
     6  H   -0.043149   0.402989   0.004426  -0.000480  -0.029994   0.517130
     7  H    0.396880  -0.045960  -0.000603  -0.002695   0.005433  -0.001117
     8  H    0.396876  -0.031375  -0.000290   0.005237   0.000067  -0.000200
     9  H    0.000273  -0.007351   0.393879  -0.053658   0.008185  -0.000112
    10  H   -0.000480   0.004426   0.402989  -0.043149  -0.000112  -0.000033
    11  H    0.005237  -0.000290  -0.031375   0.396876   0.000008   0.000017
    12  H   -0.002695  -0.000603  -0.045960   0.396880   0.000318   0.000021
    13  O   -0.050818   0.218479   0.218479  -0.050818  -0.040428  -0.028772
    14  N    0.254725  -0.057505  -0.057505   0.254725  -0.000199   0.003822
    15  B   -0.038808   0.005244   0.005244  -0.038808  -0.000359  -0.000187
    16  H   -0.001930   0.000064  -0.000062   0.001800   0.000001   0.000002
    17  H    0.001800  -0.000062   0.000064  -0.001930   0.000000   0.000001
              7          8          9         10         11         12
     1  C    0.396880   0.396876   0.000273  -0.000480   0.005237  -0.002695
     2  C   -0.045960  -0.031375  -0.007351   0.004426  -0.000290  -0.000603
     3  C   -0.000603  -0.000290   0.393879   0.402989  -0.031375  -0.045960
     4  C   -0.002695   0.005237  -0.053658  -0.043149   0.396876   0.396880
     5  H    0.005433   0.000067   0.008185  -0.000112   0.000008   0.000318
     6  H   -0.001117  -0.000200  -0.000112  -0.000033   0.000017   0.000021
     7  H    0.581249  -0.029372   0.000318   0.000021  -0.000186   0.008895
     8  H   -0.029372   0.522367   0.000008   0.000017  -0.000048  -0.000186
     9  H    0.000318   0.000008   0.564180  -0.029994   0.000067   0.005433
    10  H    0.000021   0.000017  -0.029994   0.517130  -0.000200  -0.001117
    11  H   -0.000186  -0.000048   0.000067  -0.000200   0.522367  -0.029372
    12  H    0.008895  -0.000186   0.005433  -0.001117  -0.029372   0.581249
    13  O    0.000618   0.002834  -0.040428  -0.028772   0.002834   0.000618
    14  N   -0.059368  -0.036842  -0.000199   0.003822  -0.036842  -0.059368
    15  B   -0.010724  -0.006354  -0.000359  -0.000187  -0.006354  -0.010724
    16  H    0.000276   0.000870   0.000000   0.000001   0.000057  -0.000045
    17  H   -0.000045   0.000057   0.000001   0.000002   0.000870   0.000276
             13         14         15         16         17
     1  C   -0.050818   0.254725  -0.038808  -0.001930   0.001800
     2  C    0.218479  -0.057505   0.005244   0.000064  -0.000062
     3  C    0.218479  -0.057505   0.005244  -0.000062   0.000064
     4  C   -0.050818   0.254725  -0.038808   0.001800  -0.001930
     5  H   -0.040428  -0.000199  -0.000359   0.000001   0.000000
     6  H   -0.028772   0.003822  -0.000187   0.000002   0.000001
     7  H    0.000618  -0.059368  -0.010724   0.000276  -0.000045
     8  H    0.002834  -0.036842  -0.006354   0.000870   0.000057
     9  H   -0.040428  -0.000199  -0.000359   0.000000   0.000001
    10  H   -0.028772   0.003822  -0.000187   0.000001   0.000002
    11  H    0.002834  -0.036842  -0.006354   0.000057   0.000870
    12  H    0.000618  -0.059368  -0.010724  -0.000045   0.000276
    13  O    8.440747   0.000509  -0.000475   0.000001   0.000001
    14  N    0.000509   7.107842   0.393168  -0.025901  -0.025901
    15  B   -0.000475   0.393168   3.494375   0.418298   0.418298
    16  H    0.000001  -0.025901   0.418298   0.689528  -0.028900
    17  H    0.000001  -0.025901   0.418298  -0.028900   0.689528
 Mulliken atomic charges:
              1
     1  C   -0.154744
     2  C    0.003135
     3  C    0.003135
     4  C   -0.154744
     5  H    0.159758
     6  H    0.175636
     7  H    0.156380
     8  H    0.176335
     9  H    0.159758
    10  H    0.175636
    11  H    0.176335
    12  H    0.156380
    13  O   -0.644610
    14  N   -0.658983
    15  B    0.378712
    16  H   -0.054060
    17  H   -0.054060
 Sum of Mulliken atomic charges =   0.00000
 Mulliken charges with hydrogens summed into heavy atoms:
              1
     1  C    0.177971
     2  C    0.338529
     3  C    0.338529
     4  C    0.177971
    13  O   -0.644610
    14  N   -0.658983
    15  B    0.270592
 Sum of Mulliken charges with hydrogens summed into heavy atoms =   0.00000
 Electronic spatial extent (au):  <R**2>=            734.7832
 Charge=              0.0000 electrons
 Dipole moment (field-independent basis, Debye):
    X=              0.2841    Y=              0.9943    Z=              0.0000  Tot=              1.0341
 Quadrupole moment (field-independent basis, Debye-Ang):
   XX=            -46.1316   YY=            -47.8441   ZZ=            -39.5587
   XY=             -3.4524   XZ=              0.0000   YZ=              0.0000
 Traceless Quadrupole moment (field-independent basis, Debye-Ang):
   XX=             -1.6202   YY=             -3.3326   ZZ=              4.9528
   XY=             -3.4524   XZ=              0.0000   YZ=              0.0000
 Octapole moment (field-independent basis, Debye-Ang**2):
  XXX=             -3.9684  YYY=            -14.6893  ZZZ=              0.0000  XYY=              2.5048
  XXY=             -1.8252  XXZ=              0.0000  XZZ=             -2.5915  YZZ=            -11.8929
  YYZ=              0.0000  XYZ=              0.0000
 Hexadecapole moment (field-independent basis, Debye-Ang**3):
 XXXX=           -116.0886 YYYY=           -644.5601 ZZZZ=           -307.6225 XXXY=            -62.0906
 XXXZ=              0.0000 YYYX=            -73.2078 YYYZ=              0.0000 ZZZX=              0.0000
 ZZZY=              0.0000 XXYY=           -116.2225 XXZZ=            -71.0431 YYZZ=           -153.7863
 XXYZ=              0.0000 YYXZ=              0.0000 ZZXY=            -16.8502
 N-N= 3.148344749817D+02 E-N=-1.357760918190D+03  KE= 3.107989312114D+02
 Symmetry A'   KE= 2.260312821482D+02
 Symmetry A"   KE= 8.476764906327D+01
 Calling FoFJK, ICntrl=      2127 FMM=F ISym2X=1 I1Cent= 0 IOpClX= 0 NMat=1 NMatS=1 NMatT=0.
 ***** Axes restored to original set *****
 -------------------------------------------------------------------
 Center     Atomic                   Forces (Hartrees/Bohr)
 Number     Number              X              Y              Z
 -------------------------------------------------------------------
      1        6          -0.022148052   -0.019951288    0.011563918
      2        6           0.019917720    0.014599156    0.022437835
      3        6           0.019917720    0.014599156   -0.022437835
      4        6          -0.022148052   -0.019951288   -0.011563918
      5        1          -0.011936267   -0.001669599   -0.001268932
      6        1           0.005381488   -0.009829670   -0.002923157
      7        1           0.014190315   -0.003068658   -0.005712184
      8        1          -0.003023402    0.004930244   -0.008196449
      9        1          -0.011936267   -0.001669599    0.001268932
     10        1           0.005381488   -0.009829670    0.002923157
     11        1          -0.003023402    0.004930244    0.008196449
     12        1           0.014190315   -0.003068658    0.005712184
     13        8          -0.015437564    0.012501970    0.000000000
     14        7           0.042134008    0.088979728    0.000000000
     15        5          -0.029506854   -0.069926397    0.000000000
     16        1          -0.000976597   -0.000787834   -0.005348618
     17        1          -0.000976597   -0.000787834    0.005348618
 -------------------------------------------------------------------
 Cartesian Forces:  Max     0.088979728 RMS     0.020498364

 GradGradGradGradGradGradGradGradGradGradGradGradGradGradGradGradGradGrad
 Berny optimization.
 Internal  Forces:  Max     0.076983579 RMS     0.010127267
 Search for a local minimum.
 Step number   1 out of a maximum of   98
 All quantities printed in internal units (Hartrees-Bohrs-Radians)
 Mixed Optimization -- RFO/linear search
 Second derivative matrix not updated -- first step.
 ITU=  0
     Eigenvalues ---    0.00230   0.00230   0.00618   0.00946   0.01477
     Eigenvalues ---    0.02787   0.03339   0.04624   0.05133   0.05169
     Eigenvalues ---    0.05579   0.05805   0.06388   0.06459   0.08324
     Eigenvalues ---    0.08860   0.08866   0.09156   0.10566   0.11289
     Eigenvalues ---    0.11331   0.13191   0.14480   0.15886   0.16000
     Eigenvalues ---    0.16000   0.17624   0.21499   0.25250   0.26185
     Eigenvalues ---    0.26185   0.27221   0.28515   0.34425   0.34667
     Eigenvalues ---    0.37230   0.37230   0.37230   0.37230   0.37230
     Eigenvalues ---    0.37230   0.37230   0.37230   0.39363   0.39529
 RFO step:  Lambda=-3.46299689D-02 EMin= 2.30000000D-03
 Linear search not attempted -- first point.
 Maximum step size (   0.300) exceeded in Quadratic search.
    -- Step size scaled by   0.919
 Iteration  1 RMS(Cart)=  0.05211566 RMS(Int)=  0.00632245
 Iteration  2 RMS(Cart)=  0.01027424 RMS(Int)=  0.00080169
 Iteration  3 RMS(Cart)=  0.00003095 RMS(Int)=  0.00080121
 Iteration  4 RMS(Cart)=  0.00000005 RMS(Int)=  0.00080121
 ClnCor:  largest displacement from symmetrization is 1.72D-10 for atom    11.
 Variable       Old X    -DE/DX   Delta X   Delta X   Delta X     New X
                                 (Linear)    (Quad)   (Total)
    R1        2.91026  -0.01043   0.00000  -0.03001  -0.03002   2.88024
    R2        2.02201   0.01383   0.00000   0.03123   0.03123   2.05324
    R3        2.02201   0.00998   0.00000   0.02254   0.02254   2.04455
    R4        2.77199   0.00403   0.00000   0.01094   0.01143   2.78342
    R5        2.02201   0.01204   0.00000   0.02718   0.02718   2.04919
    R6        2.02201   0.00878   0.00000   0.01982   0.01982   2.04183
    R7        2.70826  -0.02084   0.00000  -0.04496  -0.04546   2.66280
    R8        2.91026  -0.01043   0.00000  -0.03001  -0.03002   2.88024
    R9        2.02201   0.01204   0.00000   0.02718   0.02718   2.04919
   R10        2.02201   0.00878   0.00000   0.01982   0.01982   2.04183
   R11        2.70826  -0.02084   0.00000  -0.04496  -0.04546   2.66280
   R12        2.02201   0.00998   0.00000   0.02254   0.02254   2.04455
   R13        2.02201   0.01383   0.00000   0.03123   0.03123   2.05324
   R14        2.77199   0.00403   0.00000   0.01094   0.01143   2.78342
   R15        2.98577  -0.07698   0.00000  -0.24634  -0.24634   2.73942
   R16        2.22988   0.00413   0.00000   0.01280   0.01280   2.24268
   R17        2.22988   0.00413   0.00000   0.01280   0.01280   2.24268
    A1        1.91091  -0.00374   0.00000  -0.02453  -0.02483   1.88608
    A2        1.91296   0.00074   0.00000  -0.00069  -0.00095   1.91201
    A3        1.90606  -0.00035   0.00000   0.00393   0.00466   1.91071
    A4        1.90998  -0.00084   0.00000  -0.00994  -0.01012   1.89986
    A5        1.91168   0.00406   0.00000   0.02789   0.02803   1.93971
    A6        1.91221   0.00014   0.00000   0.00339   0.00289   1.91510
    A7        1.91050  -0.00116   0.00000   0.00058   0.00052   1.91101
    A8        1.90916   0.00409   0.00000   0.02721   0.02751   1.93667
    A9        1.91348   0.00555   0.00000   0.01715   0.01673   1.93021
   A10        1.91103  -0.00039   0.00000  -0.00288  -0.00324   1.90778
   A11        1.90984  -0.00163   0.00000  -0.00561  -0.00531   1.90453
   A12        1.90979  -0.00645   0.00000  -0.03646  -0.03679   1.87300
   A13        1.91050  -0.00116   0.00000   0.00058   0.00052   1.91101
   A14        1.90916   0.00409   0.00000   0.02721   0.02751   1.93667
   A15        1.91348   0.00555   0.00000   0.01715   0.01673   1.93021
   A16        1.91103  -0.00039   0.00000  -0.00288  -0.00324   1.90778
   A17        1.90984  -0.00163   0.00000  -0.00561  -0.00531   1.90453
   A18        1.90979  -0.00645   0.00000  -0.03646  -0.03679   1.87300
   A19        1.91296   0.00074   0.00000  -0.00069  -0.00095   1.91201
   A20        1.91091  -0.00374   0.00000  -0.02453  -0.02483   1.88608
   A21        1.90606  -0.00035   0.00000   0.00393   0.00466   1.91071
   A22        1.90998  -0.00084   0.00000  -0.00994  -0.01012   1.89986
   A23        1.91221   0.00014   0.00000   0.00339   0.00289   1.91510
   A24        1.91168   0.00406   0.00000   0.02789   0.02803   1.93971
   A25        1.92357   0.00087   0.00000  -0.00262  -0.00230   1.92127
   A26        1.90079  -0.00675   0.00000   0.00645   0.00377   1.90457
   A27        1.91510   0.00800   0.00000   0.06377   0.06050   1.97560
   A28        1.91510   0.00800   0.00000   0.06377   0.06050   1.97560
   A29        2.09440  -0.00263   0.00000  -0.01242  -0.01262   2.08177
   A30        2.09440  -0.00263   0.00000  -0.01242  -0.01262   2.08177
   A31        2.09440   0.00526   0.00000   0.02485   0.02465   2.11905
    D1       -3.14137   0.00274   0.00000   0.04108   0.04097  -3.10041
    D2       -1.04748   0.00404   0.00000   0.05452   0.05448  -0.99300
    D3        1.04673   0.00204   0.00000   0.03706   0.03679   1.08351
    D4       -1.04618  -0.00014   0.00000   0.01334   0.01327  -1.03290
    D5        1.04772   0.00117   0.00000   0.02679   0.02679   1.07451
    D6       -3.14126  -0.00083   0.00000   0.00933   0.00909  -3.13217
    D7        1.04876   0.00027   0.00000   0.01947   0.01910   1.06786
    D8       -3.14053   0.00157   0.00000   0.03292   0.03262  -3.10792
    D9       -1.04632  -0.00043   0.00000   0.01546   0.01492  -1.03141
   D10        1.03684  -0.00566   0.00000  -0.04998  -0.04984   0.98700
   D11        3.13338   0.00482   0.00000   0.07043   0.07048  -3.07932
   D12       -1.05574  -0.00333   0.00000  -0.03930  -0.03941  -1.09516
   D13        1.04080   0.00715   0.00000   0.08111   0.08091   1.12171
   D14        3.13223  -0.00488   0.00000  -0.04636  -0.04636   3.08588
   D15       -1.05441   0.00559   0.00000   0.07405   0.07397  -0.98044
   D16        1.05893  -0.00024   0.00000   0.00898   0.00881   1.06774
   D17       -1.03655  -0.00122   0.00000   0.00120   0.00116  -1.03540
   D18       -3.13043   0.00420   0.00000   0.03041   0.02967  -3.10076
   D19        1.04618   0.00014   0.00000  -0.01334  -0.01327   1.03290
   D20        3.14137  -0.00274   0.00000  -0.04108  -0.04097   3.10041
   D21       -1.04876  -0.00027   0.00000  -0.01947  -0.01910  -1.06786
   D22       -1.04772  -0.00117   0.00000  -0.02679  -0.02679  -1.07451
   D23        1.04748  -0.00404   0.00000  -0.05452  -0.05448   0.99300
   D24        3.14053  -0.00157   0.00000  -0.03292  -0.03262   3.10792
   D25        3.14126   0.00083   0.00000  -0.00933  -0.00909   3.13217
   D26       -1.04673  -0.00204   0.00000  -0.03706  -0.03679  -1.08351
   D27        1.04632   0.00043   0.00000  -0.01546  -0.01492   1.03141
   D28       -1.05893   0.00024   0.00000  -0.00898  -0.00881  -1.06774
   D29        1.03655   0.00122   0.00000  -0.00120  -0.00116   1.03540
   D30        3.13043  -0.00420   0.00000  -0.03041  -0.02967   3.10076
   D31       -1.03684   0.00566   0.00000   0.04998   0.04984  -0.98700
   D32       -3.13338  -0.00482   0.00000  -0.07043  -0.07048   3.07932
   D33       -3.13223   0.00488   0.00000   0.04636   0.04636  -3.08588
   D34        1.05441  -0.00559   0.00000  -0.07405  -0.07397   0.98044
   D35        1.05574   0.00333   0.00000   0.03930   0.03941   1.09516
   D36       -1.04080  -0.00715   0.00000  -0.08111  -0.08091  -1.12171
   D37        0.52689  -0.00006   0.00000  -0.02507  -0.02736   0.49953
   D38       -2.61470  -0.00152   0.00000  -0.06146  -0.06375  -2.67845
   D39        2.61470   0.00152   0.00000   0.06146   0.06375   2.67845
   D40       -0.52689   0.00006   0.00000   0.02507   0.02736  -0.49953
         Item               Value     Threshold  Converged?
 Maximum Force            0.076984     0.000450     NO 
 RMS     Force            0.010127     0.000300     NO 
 Maximum Displacement     0.167439     0.001800     NO 
 RMS     Displacement     0.055316     0.001200     NO 
 Predicted change in Energy=-2.010438D-02
 GradGradGradGradGradGradGradGradGradGradGradGradGradGradGradGradGradGrad

                          Input orientation:                          
 ---------------------------------------------------------------------
 Center     Atomic      Atomic             Coordinates (Angstroms)
 Number     Number       Type             X           Y           Z
 ---------------------------------------------------------------------
      1          6           0        0.206091    0.377943   -1.200051
      2          6           0       -0.196859   -1.091288   -1.154832
      3          6           0       -0.196859   -1.091288    1.154832
      4          6           0        0.206091    0.377943    1.200051
      5          1           0       -1.278367   -1.169794   -1.146434
      6          1           0        0.193505   -1.625651   -2.008954
      7          1           0        1.290279    0.428567   -1.250200
      8          1           0       -0.206883    0.839480   -2.087182
      9          1           0       -1.278367   -1.169794    1.146434
     10          1           0        0.193505   -1.625651    2.008954
     11          1           0       -0.206883    0.839480    2.087182
     12          1           0        1.290279    0.428567    1.250200
     13          8           0        0.319946   -1.711632    0.000000
     14          7           0       -0.302716    1.063869    0.000000
     15          5           0       -0.034832    2.488544    0.000000
     16          1           0        0.053910    3.062398   -1.035014
     17          1           0        0.053910    3.062398    1.035014
 ---------------------------------------------------------------------
                    Distance matrix (angstroms):
                    1          2          3          4          5
     1  C    0.000000
     2  C    1.524157   0.000000
     3  C    2.804725   2.309663   0.000000
     4  C    2.400102   2.804725   1.524157   0.000000
     5  H    2.145222   1.084385   2.543942   3.178851   0.000000
     6  H    2.160757   1.080488   3.232254   3.783155   1.765829
     7  H    1.086527   2.128530   3.210252   2.679880   3.027122
     8  H    1.081927   2.144118   3.773409   3.345066   2.463791
     9  H    3.178851   2.543942   1.084385   2.145222   2.292867
    10  H    3.783155   3.232254   1.080488   2.160757   3.511507
    11  H    3.345066   3.773409   2.144118   1.081927   3.954937
    12  H    2.679880   3.210252   2.128530   1.086527   3.859605
    13  O    2.412345   1.409095   1.409095   2.412345   2.040221
    14  N    1.472923   2.447355   2.447355   1.472923   2.693595
    15  B    2.439837   3.764982   3.764982   2.439837   4.030400
    16  H    2.693826   4.162974   4.702278   3.496423   4.438336
    17  H    3.496423   4.702278   4.162974   2.693826   4.944201
                    6          7          8          9         10
     6  H    0.000000
     7  H    2.449170   0.000000
     8  H    2.498659   1.763769   0.000000
     9  H    3.511507   3.859605   3.954937   0.000000
    10  H    4.017909   4.005598   4.797449   1.765829   0.000000
    11  H    4.797449   3.680824   4.174364   2.463791   2.498659
    12  H    4.005598   2.500400   3.680824   3.027122   2.449170
    13  O    2.014765   2.661766   3.337971   2.040221   2.014765
    14  N    3.393472   2.122320   2.101396   2.693595   3.393472
    15  B    4.584172   2.749986   2.665585   4.030400   4.584172
    16  H    4.790183   2.917530   2.473143   4.944201   5.591336
    17  H    5.591336   3.699713   3.841547   4.438336   4.790183
                   11         12         13         14         15
    11  H    0.000000
    12  H    1.763769   0.000000
    13  O    3.337971   2.661766   0.000000
    14  N    2.101396   2.122320   2.844489   0.000000
    15  B    2.665585   2.749986   4.215133   1.449641   0.000000
    16  H    3.841547   3.699713   4.892177   2.278718   1.186776
    17  H    2.473143   2.917530   4.892177   2.278718   1.186776
                   16         17
    16  H    0.000000
    17  H    2.070027   0.000000
 Stoichiometry    C4H10BNO
 Framework group  CS[SG(BNO),X(C4H10)]
 Deg. of freedom    24
 Full point group                 CS      NOp   2
 Largest Abelian subgroup         CS      NOp   2
 Largest concise Abelian subgroup CS      NOp   2
                         Standard orientation:                         
 ---------------------------------------------------------------------
 Center     Atomic      Atomic             Coordinates (Angstroms)
 Number     Number       Type             X           Y           Z
 ---------------------------------------------------------------------
      1          6           0       -0.093641    0.404013    1.200051
      2          6           0       -0.093641   -1.119473    1.154832
      3          6           0       -0.093641   -1.119473   -1.154832
      4          6           0       -0.093641    0.404013   -1.200051
      5          1           0        0.928588   -1.481234    1.146434
      6          1           0       -0.611438   -1.531558    2.008954
      7          1           0       -1.125829    0.739594    1.250200
      8          1           0        0.426700    0.739885    2.087182
      9          1           0        0.928588   -1.481234   -1.146434
     10          1           0       -0.611438   -1.531558   -2.008954
     11          1           0        0.426700    0.739885   -2.087182
     12          1           0       -1.125829    0.739594   -1.250200
     13          8           0       -0.756117   -1.581034    0.000000
     14          7           0        0.578469    0.930936    0.000000
     15          5           0        0.696941    2.375728    0.000000
     16          1           0        0.763139    2.952618    1.035014
     17          1           0        0.763139    2.952618   -1.035014
 ---------------------------------------------------------------------
 Rotational constants (GHZ):      4.9036618      2.4851087      1.7845858
 Standard basis: 6-31G(d) (6D, 7F)
 There are    73 symmetry adapted basis functions of A'  symmetry.
 There are    52 symmetry adapted basis functions of A"  symmetry.
 Integral buffers will be    262144 words long.
 Raffenetti 1 integral format.
 Two-electron integral symmetry is turned on.
   125 basis functions,   236 primitive gaussians,   125 cartesian basis functions
    27 alpha electrons       27 beta electrons
       nuclear repulsion energy       317.7474580272 Hartrees.
 NAtoms=   17 NActive=   17 NUniq=   10 SFac= 2.89D+00 NAtFMM=   50 NAOKFM=F Big=F
 One-electron integrals computed using PRISM.
 NBasis=   125 RedAO= T  NBF=    73    52
 NBsUse=   125 1.00D-06 NBFU=    73    52
 Initial guess read from the read-write file.
 B after Tr=     0.000000    0.000000    0.000000
         Rot=    1.000000    0.000000    0.000000    0.000000 Ang=   0.00 deg.
 Initial guess orbital symmetries:
       Occupied  (A') (A') (A") (A') (A") (A') (A') (A') (A') (A")
                 (A') (A") (A') (A') (A') (A") (A') (A') (A") (A")
                 (A') (A") (A") (A") (A') (A') (A')
       Virtual   (A') (A') (A') (A") (A') (A') (A') (A") (A") (A')
                 (A") (A') (A") (A') (A") (A") (A') (A") (A') (A")
                 (A') (A') (A") (A") (A') (A') (A') (A") (A') (A')
                 (A") (A') (A") (A") (A') (A') (A") (A') (A") (A')
                 (A') (A") (A') (A') (A") (A") (A') (A') (A") (A')
                 (A") (A') (A') (A") (A') (A") (A") (A') (A") (A')
                 (A') (A') (A') (A") (A') (A") (A") (A') (A') (A")
                 (A") (A") (A') (A') (A') (A") (A") (A') (A") (A')
                 (A") (A') (A') (A") (A') (A') (A") (A') (A') (A")
                 (A") (A') (A') (A') (A") (A') (A') (A")
 Harris functional with IExCor=  205 diagonalized for initial guess.
 ExpMin= 1.27D-01 ExpMax= 5.48D+03 ExpMxC= 8.25D+02 IAcc=1 IRadAn=         1 AccDes= 0.00D+00
 HarFok:  IExCor=  205 AccDes= 0.00D+00 IRadAn=         1 IDoV= 1
 ScaDFX=  1.000000  1.000000  1.000000  1.000000
 FoFCou: FMM=F IPFlag=           0 FMFlag=      100000 FMFlg1=           0
         NFxFlg=           0 DoJE=T BraDBF=F KetDBF=T FulRan=T
         Omega=  0.000000  0.000000  1.000000  0.000000  0.000000 ICntrl=     500 IOpCl=  0
         NMat0=    1 NMatS0=    1 NMatT0=    0 NMatD0=    1 NMtDS0=    0 NMtDT0=    0
         I1Cent=           4 NGrid=           0.
 Petite list used in FoFCou.
 Requested convergence on RMS density matrix=1.00D-08 within 128 cycles.
 Requested convergence on MAX density matrix=1.00D-06.
 Requested convergence on             energy=1.00D-06.
 No special actions if energy rises.
 Keep R1 ints in memory in canonical form, NReq=32070653.
 SCF Done:  E(RHF) =  -311.283634979     A.U. after   11 cycles
             Convg  =    0.9961D-08             -V/T =  2.0011
 Calling FoFJK, ICntrl=      2127 FMM=F ISym2X=1 I1Cent= 0 IOpClX= 0 NMat=1 NMatS=1 NMatT=0.
 ***** Axes restored to original set *****
 -------------------------------------------------------------------
 Center     Atomic                   Forces (Hartrees/Bohr)
 Number     Number              X              Y              Z
 -------------------------------------------------------------------
      1        6          -0.013098961   -0.010737689    0.001508323
      2        6           0.005308383   -0.000026676    0.004142876
      3        6           0.005308383   -0.000026676   -0.004142876
      4        6          -0.013098961   -0.010737689   -0.001508323
      5        1          -0.002681503   -0.000560118   -0.002537715
      6        1           0.000495905   -0.001044029   -0.000593735
      7        1           0.001221705    0.001095352   -0.000772694
      8        1           0.000215343    0.001755178    0.000202912
      9        1          -0.002681503   -0.000560118    0.002537715
     10        1           0.000495905   -0.001044029    0.000593735
     11        1           0.000215343    0.001755178   -0.000202912
     12        1           0.001221705    0.001095352    0.000772694
     13        8          -0.005973754    0.006722231    0.000000000
     14        7           0.042407527    0.032073348    0.000000000
     15        5          -0.020001191   -0.022961741    0.000000000
     16        1           0.000322836    0.001601063   -0.001503688
     17        1           0.000322836    0.001601063    0.001503688
 -------------------------------------------------------------------
 Cartesian Forces:  Max     0.042407527 RMS     0.009454013

 GradGradGradGradGradGradGradGradGradGradGradGradGradGradGradGradGradGrad
 Berny optimization.
 Using GEDIIS/GDIIS optimizer.
 Internal  Forces:  Max     0.022996076 RMS     0.003465136
 Search for a local minimum.
 Step number   2 out of a maximum of   98
 All quantities printed in internal units (Hartrees-Bohrs-Radians)
 Mixed Optimization -- RFO/linear search
 Update second derivatives using D2CorX and points    1    2
 DE= -2.26D-02 DEPred=-2.01D-02 R= 1.13D+00
 SS=  1.41D+00  RLast= 4.05D-01 DXNew= 5.0454D-01 1.2141D+00
 Trust test= 1.13D+00 RLast= 4.05D-01 DXMaxT set to 5.05D-01
 ITU=  1  0
 Use linear search instead of GDIIS.
     Eigenvalues ---    0.00230   0.00237   0.00610   0.00919   0.01407
     Eigenvalues ---    0.02099   0.03297   0.04426   0.04957   0.05074
     Eigenvalues ---    0.05563   0.05846   0.06319   0.06380   0.08518
     Eigenvalues ---    0.08839   0.08944   0.09075   0.10728   0.11536
     Eigenvalues ---    0.11664   0.13269   0.14955   0.15965   0.16000
     Eigenvalues ---    0.16434   0.17985   0.20352   0.24971   0.26185
     Eigenvalues ---    0.26225   0.27239   0.28692   0.34679   0.34690
     Eigenvalues ---    0.37166   0.37230   0.37230   0.37230   0.37230
     Eigenvalues ---    0.37230   0.37230   0.38274   0.39338   0.39487
 RFO step:  Lambda=-7.61294183D-03 EMin= 2.30000000D-03
 Quartic linear search produced a step of  0.39529.
 Iteration  1 RMS(Cart)=  0.04882531 RMS(Int)=  0.00519022
 Iteration  2 RMS(Cart)=  0.00597214 RMS(Int)=  0.00322243
 Iteration  3 RMS(Cart)=  0.00001573 RMS(Int)=  0.00322238
 Iteration  4 RMS(Cart)=  0.00000008 RMS(Int)=  0.00322238
 ClnCor:  largest displacement from symmetrization is 2.91D-10 for atom    11.
 Variable       Old X    -DE/DX   Delta X   Delta X   Delta X     New X
                                 (Linear)    (Quad)   (Total)
    R1        2.88024  -0.00175  -0.01187   0.00207  -0.00988   2.87036
    R2        2.05324   0.00131   0.01235  -0.00503   0.00732   2.06056
    R3        2.04455   0.00050   0.00891  -0.00521   0.00370   2.04824
    R4        2.78342  -0.00049   0.00452  -0.00756  -0.00105   2.78237
    R5        2.04919   0.00270   0.01075   0.00121   0.01195   2.06114
    R6        2.04183   0.00116   0.00783  -0.00199   0.00585   2.04767
    R7        2.66280  -0.00480  -0.01797  -0.00009  -0.02006   2.64275
    R8        2.88024  -0.00175  -0.01187   0.00207  -0.00988   2.87036
    R9        2.04919   0.00270   0.01075   0.00121   0.01195   2.06114
   R10        2.04183   0.00116   0.00783  -0.00199   0.00585   2.04767
   R11        2.66280  -0.00480  -0.01797  -0.00009  -0.02006   2.64275
   R12        2.04455   0.00050   0.00891  -0.00521   0.00370   2.04824
   R13        2.05324   0.00131   0.01235  -0.00503   0.00732   2.06056
   R14        2.78342  -0.00049   0.00452  -0.00756  -0.00105   2.78237
   R15        2.73942  -0.02300  -0.09738  -0.03384  -0.13122   2.60820
   R16        2.24268   0.00211   0.00506   0.00622   0.01128   2.25396
   R17        2.24268   0.00211   0.00506   0.00622   0.01128   2.25396
    A1        1.88608   0.00058  -0.00981   0.02401   0.01344   1.89952
    A2        1.91201  -0.00049  -0.00037   0.00707   0.00596   1.91797
    A3        1.91071   0.00296   0.00184   0.01553   0.02019   1.93090
    A4        1.89986  -0.00021  -0.00400  -0.00367  -0.00764   1.89222
    A5        1.93971  -0.00206   0.01108  -0.03645  -0.02527   1.91444
    A6        1.91510  -0.00078   0.00114  -0.00576  -0.00674   1.90835
    A7        1.91101   0.00024   0.00020  -0.00164  -0.00160   1.90941
    A8        1.93667   0.00049   0.01088  -0.01231  -0.00053   1.93614
    A9        1.93021  -0.00086   0.00661  -0.00229   0.00260   1.93281
   A10        1.90778  -0.00088  -0.00128  -0.01435  -0.01593   1.89185
   A11        1.90453   0.00053  -0.00210   0.00732   0.00678   1.91131
   A12        1.87300   0.00048  -0.01454   0.02374   0.00862   1.88162
   A13        1.91101   0.00024   0.00020  -0.00164  -0.00160   1.90941
   A14        1.93667   0.00049   0.01088  -0.01231  -0.00053   1.93614
   A15        1.93021  -0.00086   0.00661  -0.00229   0.00260   1.93281
   A16        1.90778  -0.00088  -0.00128  -0.01435  -0.01593   1.89185
   A17        1.90453   0.00053  -0.00210   0.00732   0.00678   1.91131
   A18        1.87300   0.00048  -0.01454   0.02374   0.00862   1.88162
   A19        1.91201  -0.00049  -0.00037   0.00707   0.00596   1.91797
   A20        1.88608   0.00058  -0.00981   0.02401   0.01344   1.89952
   A21        1.91071   0.00296   0.00184   0.01553   0.02019   1.93090
   A22        1.89986  -0.00021  -0.00400  -0.00367  -0.00764   1.89222
   A23        1.91510  -0.00078   0.00114  -0.00576  -0.00674   1.90835
   A24        1.93971  -0.00206   0.01108  -0.03645  -0.02527   1.91444
   A25        1.92127   0.00233  -0.00091   0.02356   0.02358   1.94485
   A26        1.90457  -0.00265   0.00149   0.03545   0.02723   1.93180
   A27        1.97560   0.00556   0.02391   0.07989   0.08754   2.06314
   A28        1.97560   0.00556   0.02391   0.07989   0.08754   2.06314
   A29        2.08177   0.00052  -0.00499   0.01101   0.00336   2.08513
   A30        2.08177   0.00052  -0.00499   0.01101   0.00336   2.08513
   A31        2.11905  -0.00103   0.00974  -0.01725  -0.01017   2.10887
    D1       -3.10041   0.00118   0.01619   0.03272   0.04890  -3.05151
    D2       -0.99300   0.00055   0.02154   0.00588   0.02773  -0.96527
    D3        1.08351   0.00091   0.01454   0.02614   0.03986   1.12338
    D4       -1.03290   0.00099   0.00525   0.04625   0.05101  -0.98190
    D5        1.07451   0.00037   0.01059   0.01940   0.02984   1.10434
    D6       -3.13217   0.00072   0.00359   0.03966   0.04197  -3.09020
    D7        1.06786   0.00157   0.00755   0.05315   0.05922   1.12708
    D8       -3.10792   0.00094   0.01289   0.02630   0.03805  -3.06987
    D9       -1.03141   0.00130   0.00590   0.04656   0.05018  -0.98122
   D10        0.98700  -0.00363  -0.01970  -0.05716  -0.07658   0.91041
   D11       -3.07932   0.00583   0.02786   0.13754   0.16545  -2.91387
   D12       -1.09516  -0.00497  -0.01558  -0.07420  -0.09012  -1.18527
   D13        1.12171   0.00449   0.03198   0.12049   0.15191   1.27363
   D14        3.08588  -0.00287  -0.01832  -0.04238  -0.06079   3.02509
   D15       -0.98044   0.00659   0.02924   0.15232   0.18124  -0.79920
   D16        1.06774  -0.00009   0.00348  -0.00680  -0.00445   1.06329
   D17       -1.03540  -0.00019   0.00046  -0.00803  -0.00848  -1.04388
   D18       -3.10076   0.00030   0.01173  -0.00828   0.00193  -3.09882
   D19        1.03290  -0.00099  -0.00525  -0.04625  -0.05101   0.98190
   D20        3.10041  -0.00118  -0.01619  -0.03272  -0.04890   3.05151
   D21       -1.06786  -0.00157  -0.00755  -0.05315  -0.05922  -1.12708
   D22       -1.07451  -0.00037  -0.01059  -0.01940  -0.02984  -1.10434
   D23        0.99300  -0.00055  -0.02154  -0.00588  -0.02773   0.96527
   D24        3.10792  -0.00094  -0.01289  -0.02630  -0.03805   3.06987
   D25        3.13217  -0.00072  -0.00359  -0.03966  -0.04197   3.09020
   D26       -1.08351  -0.00091  -0.01454  -0.02614  -0.03986  -1.12338
   D27        1.03141  -0.00130  -0.00590  -0.04656  -0.05018   0.98122
   D28       -1.06774   0.00009  -0.00348   0.00680   0.00445  -1.06329
   D29        1.03540   0.00019  -0.00046   0.00803   0.00848   1.04388
   D30        3.10076  -0.00030  -0.01173   0.00828  -0.00193   3.09882
   D31       -0.98700   0.00363   0.01970   0.05716   0.07658  -0.91041
   D32        3.07932  -0.00583  -0.02786  -0.13754  -0.16545   2.91387
   D33       -3.08588   0.00287   0.01832   0.04238   0.06079  -3.02509
   D34        0.98044  -0.00659  -0.02924  -0.15232  -0.18124   0.79920
   D35        1.09516   0.00497   0.01558   0.07420   0.09012   1.18527
   D36       -1.12171  -0.00449  -0.03198  -0.12049  -0.15191  -1.27363
   D37        0.49953  -0.00282  -0.01082  -0.16303  -0.18043   0.31910
   D38       -2.67845  -0.00269  -0.02520  -0.01634  -0.04835  -2.72680
   D39        2.67845   0.00269   0.02520   0.01634   0.04835   2.72680
   D40       -0.49953   0.00282   0.01082   0.16303   0.18043  -0.31910
         Item               Value     Threshold  Converged?
 Maximum Force            0.022996     0.000450     NO 
 RMS     Force            0.003465     0.000300     NO 
 Maximum Displacement     0.230472     0.001800     NO 
 RMS     Displacement     0.047083     0.001200     NO 
 Predicted change in Energy=-1.056822D-02
 GradGradGradGradGradGradGradGradGradGradGradGradGradGradGradGradGradGrad

                          Input orientation:                          
 ---------------------------------------------------------------------
 Center     Atomic      Atomic             Coordinates (Angstroms)
 Number     Number       Type             X           Y           Z
 ---------------------------------------------------------------------
      1          6           0        0.245166    0.367277   -1.211113
      2          6           0       -0.201691   -1.083366   -1.155503
      3          6           0       -0.201691   -1.083366    1.155503
      4          6           0        0.245166    0.367277    1.211113
      5          1           0       -1.291469   -1.127416   -1.165259
      6          1           0        0.170534   -1.636139   -2.009928
      7          1           0        1.331999    0.397910   -1.293756
      8          1           0       -0.178372    0.850418   -2.084037
      9          1           0       -1.291469   -1.127416    1.165259
     10          1           0        0.170534   -1.636139    2.009928
     11          1           0       -0.178372    0.850418    2.084037
     12          1           0        1.331999    0.397910    1.293756
     13          8           0        0.280594   -1.706235    0.000000
     14          7           0       -0.180756    1.088155    0.000000
     15          5           0       -0.103705    2.466205    0.000000
     16          1           0       -0.021358    3.049298   -1.037236
     17          1           0       -0.021358    3.049298    1.037236
 ---------------------------------------------------------------------
                    Distance matrix (angstroms):
                    1          2          3          4          5
     1  C    0.000000
     2  C    1.518927   0.000000
     3  C    2.811569   2.311006   0.000000
     4  C    2.422226   2.811569   1.518927   0.000000
     5  H    2.144168   1.090711   2.564272   3.200390   0.000000
     6  H    2.158090   1.083583   3.234820   3.793989   1.763439
     7  H    1.090401   2.136703   3.247346   2.730662   3.037386
     8  H    1.083884   2.145283   3.772888   3.357205   2.448461
     9  H    3.200390   2.564272   1.090711   2.144168   2.330518
    10  H    3.793989   3.234820   1.083583   2.158090   3.532430
    11  H    3.357205   3.772888   2.145283   1.083884   3.963424
    12  H    2.730662   3.247346   2.136703   1.090401   3.905887
    13  O    2.401562   1.398482   1.398482   2.401562   2.040647
    14  N    1.472369   2.459905   2.459905   1.472369   2.738661
    15  B    2.448266   3.734199   3.734199   2.448266   3.960141
    16  H    2.700834   4.138287   4.681830   3.509893   4.367437
    17  H    3.509893   4.681830   4.138287   2.700834   4.889693
                    6          7          8          9         10
     6  H    0.000000
     7  H    2.449338   0.000000
     8  H    2.512010   1.763669   0.000000
     9  H    3.532430   3.905887   3.963424   0.000000
    10  H    4.019856   4.049776   4.802629   1.763439   0.000000
    11  H    4.802629   3.727663   4.168074   2.448461   2.512010
    12  H    4.049776   2.587512   3.727663   3.037386   2.449338
    13  O    2.014159   2.684526   3.330215   2.040647   2.014159
    14  N    3.403674   2.106815   2.097554   2.738661   3.403674
    15  B    4.576488   2.830706   2.638096   3.960141   4.576488
    16  H    4.789183   2.987849   2.440393   4.889693   5.592437
    17  H    5.592437   3.780868   3.821266   4.367437   4.789183
                   11         12         13         14         15
    11  H    0.000000
    12  H    1.763669   0.000000
    13  O    3.330215   2.684526   0.000000
    14  N    2.097554   2.106815   2.832218   0.000000
    15  B    2.638096   2.830706   4.190100   1.380202   0.000000
    16  H    3.821266   3.780868   4.876692   2.224263   1.192744
    17  H    2.440393   2.987849   4.876692   2.224263   1.192744
                   16         17
    16  H    0.000000
    17  H    2.074472   0.000000
 Stoichiometry    C4H10BNO
 Framework group  CS[SG(BNO),X(C4H10)]
 Deg. of freedom    24
 Full point group                 CS      NOp   2
 Largest Abelian subgroup         CS      NOp   2
 Largest concise Abelian subgroup CS      NOp   2
                         Standard orientation:                         
 ---------------------------------------------------------------------
 Center     Atomic      Atomic             Coordinates (Angstroms)
 Number     Number       Type             X           Y           Z
 ---------------------------------------------------------------------
      1          6           0       -0.112603    0.404009    1.211113
      2          6           0       -0.112603   -1.113899    1.155503
      3          6           0       -0.112603   -1.113899   -1.155503
      4          6           0       -0.112603    0.404009   -1.211113
      5          1           0        0.915913   -1.476817    1.165259
      6          1           0       -0.631064   -1.532597    2.009928
      7          1           0       -1.142255    0.753237    1.293756
      8          1           0        0.434398    0.741054    2.084037
      9          1           0        0.915913   -1.476817   -1.165259
     10          1           0       -0.631064   -1.532597   -2.009928
     11          1           0        0.434398    0.741054   -2.084037
     12          1           0       -1.142255    0.753237   -1.293756
     13          8           0       -0.756883   -1.567186    0.000000
     14          7           0        0.506664    0.967555    0.000000
     15          5           0        0.838712    2.307219    0.000000
     16          1           0        0.931671    2.888715    1.037236
     17          1           0        0.931671    2.888715   -1.037236
 ---------------------------------------------------------------------
 Rotational constants (GHZ):      4.8753914      2.5110924      1.7892841
 Standard basis: 6-31G(d) (6D, 7F)
 There are    73 symmetry adapted basis functions of A'  symmetry.
 There are    52 symmetry adapted basis functions of A"  symmetry.
 Integral buffers will be    262144 words long.
 Raffenetti 1 integral format.
 Two-electron integral symmetry is turned on.
   125 basis functions,   236 primitive gaussians,   125 cartesian basis functions
    27 alpha electrons       27 beta electrons
       nuclear repulsion energy       318.5404235002 Hartrees.
 NAtoms=   17 NActive=   17 NUniq=   10 SFac= 2.89D+00 NAtFMM=   50 NAOKFM=F Big=F
 One-electron integrals computed using PRISM.
 NBasis=   125 RedAO= T  NBF=    73    52
 NBsUse=   125 1.00D-06 NBFU=    73    52
 Initial guess read from the read-write file.
 B after Tr=     0.000000    0.000000    0.000000
         Rot=    1.000000    0.000000    0.000000    0.000000 Ang=   0.00 deg.
 Initial guess orbital symmetries:
       Occupied  (A') (A') (A") (A') (A") (A') (A') (A') (A') (A")
                 (A') (A") (A') (A') (A") (A') (A') (A") (A') (A")
                 (A') (A") (A") (A") (A') (A') (A')
       Virtual   (A') (A') (A') (A") (A') (A') (A') (A") (A") (A")
                 (A') (A') (A") (A') (A") (A") (A') (A") (A') (A")
                 (A') (A') (A") (A") (A') (A') (A') (A") (A') (A')
                 (A") (A') (A") (A") (A') (A") (A') (A') (A") (A')
                 (A') (A") (A') (A') (A") (A") (A') (A') (A") (A')
                 (A") (A') (A') (A") (A') (A") (A") (A') (A") (A')
                 (A') (A') (A") (A') (A") (A') (A") (A') (A') (A")
                 (A") (A') (A") (A') (A") (A') (A") (A') (A") (A')
                 (A") (A') (A') (A") (A') (A') (A") (A') (A') (A")
                 (A") (A') (A') (A') (A") (A') (A') (A")
 Harris functional with IExCor=  205 diagonalized for initial guess.
 ExpMin= 1.27D-01 ExpMax= 5.48D+03 ExpMxC= 8.25D+02 IAcc=1 IRadAn=         1 AccDes= 0.00D+00
 HarFok:  IExCor=  205 AccDes= 0.00D+00 IRadAn=         1 IDoV= 1
 ScaDFX=  1.000000  1.000000  1.000000  1.000000
 FoFCou: FMM=F IPFlag=           0 FMFlag=      100000 FMFlg1=           0
         NFxFlg=           0 DoJE=T BraDBF=F KetDBF=T FulRan=T
         Omega=  0.000000  0.000000  1.000000  0.000000  0.000000 ICntrl=     500 IOpCl=  0
         NMat0=    1 NMatS0=    1 NMatT0=    0 NMatD0=    1 NMtDS0=    0 NMtDT0=    0
         I1Cent=           4 NGrid=           0.
 Petite list used in FoFCou.
 Requested convergence on RMS density matrix=1.00D-08 within 128 cycles.
 Requested convergence on MAX density matrix=1.00D-06.
 Requested convergence on             energy=1.00D-06.
 No special actions if energy rises.
 Keep R1 ints in memory in canonical form, NReq=32070653.
 SCF Done:  E(RHF) =  -311.292408780     A.U. after   12 cycles
             Convg  =    0.3820D-08             -V/T =  2.0009
 Calling FoFJK, ICntrl=      2127 FMM=F ISym2X=1 I1Cent= 0 IOpClX= 0 NMat=1 NMatS=1 NMatT=0.
 ***** Axes restored to original set *****
 -------------------------------------------------------------------
 Center     Atomic                   Forces (Hartrees/Bohr)
 Number     Number              X              Y              Z
 -------------------------------------------------------------------
      1        6          -0.005623652   -0.000146652    0.001369053
      2        6          -0.003571813    0.001051677   -0.000680282
      3        6          -0.003571813    0.001051677    0.000680282
      4        6          -0.005623652   -0.000146652   -0.001369053
      5        1           0.000853921   -0.000333360   -0.001127253
      6        1           0.000862382    0.000223862    0.001707194
      7        1          -0.001696393   -0.000599623   -0.000557444
      8        1           0.000814607    0.000405266    0.001413121
      9        1           0.000853921   -0.000333360    0.001127253
     10        1           0.000862382    0.000223862   -0.001707194
     11        1           0.000814607    0.000405266   -0.001413121
     12        1          -0.001696393   -0.000599623    0.000557444
     13        8           0.000799316   -0.002224149    0.000000000
     14        7           0.023442623   -0.018486270    0.000000000
     15        5           0.000805823    0.016503253    0.000000000
     16        1          -0.004162933    0.001502413    0.000140515
     17        1          -0.004162933    0.001502413   -0.000140515
 -------------------------------------------------------------------
 Cartesian Forces:  Max     0.023442623 RMS     0.005105140

 GradGradGradGradGradGradGradGradGradGradGradGradGradGradGradGradGradGrad
 Berny optimization.
 Using GEDIIS/GDIIS optimizer.
 Internal  Forces:  Max     0.019057849 RMS     0.002702531
 Search for a local minimum.
 Step number   3 out of a maximum of   98
 All quantities printed in internal units (Hartrees-Bohrs-Radians)
 Mixed Optimization -- RFO/linear search
 Update second derivatives using D2CorX and points    2    3
 DE= -8.77D-03 DEPred=-1.06D-02 R= 8.30D-01
 SS=  1.41D+00  RLast= 5.88D-01 DXNew= 8.4853D-01 1.7649D+00
 Trust test= 8.30D-01 RLast= 5.88D-01 DXMaxT set to 8.49D-01
 ITU=  1  1  0
 Use linear search instead of GDIIS.
     Eigenvalues ---    0.00230   0.00244   0.00589   0.00899   0.01254
     Eigenvalues ---    0.01759   0.03271   0.04295   0.04891   0.04966
     Eigenvalues ---    0.05527   0.05799   0.06256   0.06312   0.08933
     Eigenvalues ---    0.08957   0.09083   0.09253   0.10854   0.11538
     Eigenvalues ---    0.11679   0.13357   0.15912   0.16000   0.16078
     Eigenvalues ---    0.16788   0.19498   0.21812   0.26110   0.26185
     Eigenvalues ---    0.27286   0.28579   0.32575   0.34816   0.35615
     Eigenvalues ---    0.37128   0.37230   0.37230   0.37230   0.37230
     Eigenvalues ---    0.37230   0.37233   0.38916   0.39467   0.40717
 RFO step:  Lambda=-1.26621789D-02 EMin= 2.30000000D-03
 Quartic linear search produced a step of  0.24513.
 Iteration  1 RMS(Cart)=  0.08554098 RMS(Int)=  0.03134749
 Iteration  2 RMS(Cart)=  0.03941464 RMS(Int)=  0.00942321
 Iteration  3 RMS(Cart)=  0.00288073 RMS(Int)=  0.00900135
 Iteration  4 RMS(Cart)=  0.00002796 RMS(Int)=  0.00900132
 Iteration  5 RMS(Cart)=  0.00000126 RMS(Int)=  0.00900132
 Iteration  6 RMS(Cart)=  0.00000006 RMS(Int)=  0.00900132
 ClnCor:  largest displacement from symmetrization is 3.86D-10 for atom    11.
 Variable       Old X    -DE/DX   Delta X   Delta X   Delta X     New X
                                 (Linear)    (Quad)   (Total)
    R1        2.87036   0.00056  -0.00242  -0.00246  -0.00502   2.86533
    R2        2.06056  -0.00167   0.00179  -0.00064   0.00116   2.06172
    R3        2.04824  -0.00128   0.00091  -0.00112  -0.00022   2.04803
    R4        2.78237  -0.00328  -0.00026  -0.00999  -0.00771   2.77466
    R5        2.06114  -0.00083   0.00293   0.00274   0.00567   2.06681
    R6        2.04767  -0.00116   0.00143  -0.00033   0.00110   2.04878
    R7        2.64275   0.00011  -0.00492  -0.00683  -0.01428   2.62847
    R8        2.87036   0.00056  -0.00242  -0.00246  -0.00502   2.86533
    R9        2.06114  -0.00083   0.00293   0.00274   0.00567   2.06681
   R10        2.04767  -0.00116   0.00143  -0.00033   0.00110   2.04878
   R11        2.64275   0.00011  -0.00492  -0.00683  -0.01428   2.62847
   R12        2.04824  -0.00128   0.00091  -0.00112  -0.00022   2.04803
   R13        2.06056  -0.00167   0.00179  -0.00064   0.00116   2.06172
   R14        2.78237  -0.00328  -0.00026  -0.00999  -0.00771   2.77466
   R15        2.60820   0.01906  -0.03217   0.02221  -0.00995   2.59825
   R16        2.25396   0.00032   0.00276   0.00515   0.00791   2.26187
   R17        2.25396   0.00032   0.00276   0.00515   0.00791   2.26187
    A1        1.89952   0.00009   0.00329   0.00548   0.00768   1.90720
    A2        1.91797  -0.00033   0.00146  -0.00028   0.00032   1.91828
    A3        1.93090   0.00095   0.00495   0.00757   0.01628   1.94718
    A4        1.89222  -0.00010  -0.00187  -0.00537  -0.00687   1.88535
    A5        1.91444  -0.00011  -0.00620  -0.00372  -0.00994   1.90450
    A6        1.90835  -0.00053  -0.00165  -0.00393  -0.00811   1.90025
    A7        1.90941   0.00030  -0.00039   0.00485   0.00428   1.91370
    A8        1.93614  -0.00011  -0.00013  -0.00224  -0.00128   1.93486
    A9        1.93281   0.00028   0.00064   0.00446   0.00304   1.93586
   A10        1.89185   0.00001  -0.00391  -0.00367  -0.00775   1.88410
   A11        1.91131   0.00019   0.00166   0.00419   0.00775   1.91906
   A12        1.88162  -0.00069   0.00211  -0.00784  -0.00635   1.87527
   A13        1.90941   0.00030  -0.00039   0.00485   0.00428   1.91370
   A14        1.93614  -0.00011  -0.00013  -0.00224  -0.00128   1.93486
   A15        1.93281   0.00028   0.00064   0.00446   0.00304   1.93586
   A16        1.89185   0.00001  -0.00391  -0.00367  -0.00775   1.88410
   A17        1.91131   0.00019   0.00166   0.00419   0.00775   1.91906
   A18        1.88162  -0.00069   0.00211  -0.00784  -0.00635   1.87527
   A19        1.91797  -0.00033   0.00146  -0.00028   0.00032   1.91828
   A20        1.89952   0.00009   0.00329   0.00548   0.00768   1.90720
   A21        1.93090   0.00095   0.00495   0.00757   0.01628   1.94718
   A22        1.89222  -0.00010  -0.00187  -0.00537  -0.00687   1.88535
   A23        1.90835  -0.00053  -0.00165  -0.00393  -0.00811   1.90025
   A24        1.91444  -0.00011  -0.00620  -0.00372  -0.00994   1.90450
   A25        1.94485  -0.00222   0.00578   0.00016   0.00707   1.95192
   A26        1.93180   0.00030   0.00668   0.03157   0.02662   1.95842
   A27        2.06314   0.00180   0.02146   0.06643   0.06429   2.12743
   A28        2.06314   0.00180   0.02146   0.06643   0.06429   2.12743
   A29        2.08513   0.00120   0.00082   0.02244  -0.01746   2.06768
   A30        2.08513   0.00120   0.00082   0.02244  -0.01746   2.06768
   A31        2.10887  -0.00168  -0.00249   0.00390  -0.04341   2.06546
    D1       -3.05151   0.00086   0.01199   0.04680   0.05887  -2.99264
    D2       -0.96527   0.00100   0.00680   0.04397   0.05121  -0.91406
    D3        1.12338   0.00025   0.00977   0.03560   0.04440   1.16778
    D4       -0.98190   0.00061   0.01250   0.04340   0.05530  -0.92660
    D5        1.10434   0.00075   0.00731   0.04056   0.04764   1.15198
    D6       -3.09020  -0.00001   0.01029   0.03219   0.04083  -3.04936
    D7        1.12708   0.00035   0.01452   0.04321   0.05595   1.18303
    D8       -3.06987   0.00049   0.00933   0.04037   0.04829  -3.02158
    D9       -0.98122  -0.00027   0.01230   0.03200   0.04148  -0.93974
   D10        0.91041  -0.00149  -0.01877  -0.05988  -0.07804   0.83237
   D11       -2.91387   0.00423   0.04056   0.17776   0.21806  -2.69581
   D12       -1.18527  -0.00214  -0.02209  -0.06908  -0.09145  -1.27672
   D13        1.27363   0.00358   0.03724   0.16856   0.20466   1.47829
   D14        3.02509  -0.00164  -0.01490  -0.05795  -0.07259   2.95249
   D15       -0.79920   0.00408   0.04443   0.17968   0.22351  -0.57569
   D16        1.06329   0.00016  -0.00109   0.00839   0.00594   1.06923
   D17       -1.04388  -0.00052  -0.00208  -0.00322  -0.00651  -1.05039
   D18       -3.09882  -0.00025   0.00047   0.00333   0.00214  -3.09669
   D19        0.98190  -0.00061  -0.01250  -0.04340  -0.05530   0.92660
   D20        3.05151  -0.00086  -0.01199  -0.04680  -0.05887   2.99264
   D21       -1.12708  -0.00035  -0.01452  -0.04321  -0.05595  -1.18303
   D22       -1.10434  -0.00075  -0.00731  -0.04056  -0.04764  -1.15198
   D23        0.96527  -0.00100  -0.00680  -0.04397  -0.05121   0.91406
   D24        3.06987  -0.00049  -0.00933  -0.04037  -0.04829   3.02158
   D25        3.09020   0.00001  -0.01029  -0.03219  -0.04083   3.04936
   D26       -1.12338  -0.00025  -0.00977  -0.03560  -0.04440  -1.16778
   D27        0.98122   0.00027  -0.01230  -0.03200  -0.04148   0.93974
   D28       -1.06329  -0.00016   0.00109  -0.00839  -0.00594  -1.06923
   D29        1.04388   0.00052   0.00208   0.00322   0.00651   1.05039
   D30        3.09882   0.00025  -0.00047  -0.00333  -0.00214   3.09669
   D31       -0.91041   0.00149   0.01877   0.05988   0.07804  -0.83237
   D32        2.91387  -0.00423  -0.04056  -0.17776  -0.21806   2.69581
   D33       -3.02509   0.00164   0.01490   0.05795   0.07259  -2.95249
   D34        0.79920  -0.00408  -0.04443  -0.17968  -0.22351   0.57569
   D35        1.18527   0.00214   0.02209   0.06908   0.09145   1.27672
   D36       -1.27363  -0.00358  -0.03724  -0.16856  -0.20466  -1.47829
   D37        0.31910   0.00143  -0.04423   0.16687   0.10845   0.42755
   D38       -2.72680  -0.00701  -0.01185  -0.40907  -0.41866   3.13773
   D39        2.72680   0.00701   0.01185   0.40907   0.41866  -3.13773
   D40       -0.31910  -0.00143   0.04423  -0.16687  -0.10845  -0.42755
         Item               Value     Threshold  Converged?
 Maximum Force            0.019058     0.000450     NO 
 RMS     Force            0.002703     0.000300     NO 
 Maximum Displacement     0.518500     0.001800     NO 
 RMS     Displacement     0.114383     0.001200     NO 
 Predicted change in Energy=-1.105903D-02
 GradGradGradGradGradGradGradGradGradGradGradGradGradGradGradGradGradGrad

                          Input orientation:                          
 ---------------------------------------------------------------------
 Center     Atomic      Atomic             Coordinates (Angstroms)
 Number     Number       Type             X           Y           Z
 ---------------------------------------------------------------------
      1          6           0        0.337967    0.344797   -1.218760
[...]
 0.0290689,-0.0162026,0.0163767,-0.220445,0.0439073,-0.0463976,0.138884
 1,-0.303549,-0.1507734,0.0290689,0.0162026,0.0163767,-0.220445,-0.0439
 073,0.0463976,-0.1388841,-0.303549|Polar=48.7174577,-5.3849001,65.0274
 759,0.,0.,62.4176522|PolarDeriv=-6.3153383,1.8402392,2.9888799,1.40880
 09,-0.3432997,1.865438,2.6581579,1.9229995,2.5042128,-0.6503046,0.9831
 223,-3.8396112,0.8969163,-0.2484179,-1.3153512,0.7922913,-2.8196871,1.
 0678445,5.6283986,-0.3745308,-3.7026804,0.8841089,-0.5971894,-2.165851
 3,-2.4731751,-1.9964068,-2.1195408,-0.70903,1.2228607,4.2618997,1.0781
 029,-0.7173702,2.2633965,-1.04707,4.2198099,0.8777417,5.6283986,-0.374
 5308,-3.7026804,-0.8841089,0.5971894,-2.1658513,-2.4731751,-1.9964068,
 -2.1195408,0.70903,-1.2228607,4.2618997,-1.0781029,0.7173702,-2.263396
 5,-1.04707,4.2198099,-0.8777417,-6.3153383,1.8402392,2.9888799,-1.4088
 01,0.3432997,1.865438,2.6581579,1.9229995,2.5042128,0.6503046,-0.98312
 23,-3.8396112,-0.8969163,0.2484179,1.3153512,0.7922913,-2.8196871,-1.0
 678445,-7.4886196,-0.6786206,-0.2217113,-1.5301164,0.0098351,-0.939264
 8,0.7525789,-1.5552496,0.3159602,0.3180725,-0.8203752,-0.2261847,-0.58
 35077,0.1816513,-0.1617397,-1.9581873,-0.4730122,-0.8889928,0.3873118,
 -1.2964572,1.1817383,-1.8265469,0.5431605,1.1674921,-0.2465155,0.85774
 92,-4.2954004,0.3213772,-3.5060584,-2.5054113,-0.4487918,0.4662144,-2.
 5225009,1.0629909,-3.9842365,-6.6152701,8.5086448,-1.1417029,0.417217,
 -1.8794941,0.598832,1.0362762,-1.0190492,1.6638175,-1.2578012,0.416743
 3,-0.8285236,0.1576629,-0.6803227,0.2122267,0.5155997,2.073692,-0.0331
 851,-0.9892805,-0.0361043,0.5812507,-0.6141899,-1.6859151,0.0868576,-1
 .0304987,0.0709615,-0.6088889,2.3502137,-0.0271904,-2.2018926,2.086504
 2,-0.3563206,-0.0259979,-0.5791661,-0.6139191,2.3095481,-6.4419126,-7.
 4886196,-0.6786206,-0.2217114,1.5301164,-0.0098351,-0.9392648,0.752578
 9,-1.5552496,0.3159602,-0.3180725,0.8203752,-0.2261847,0.5835077,-0.18
 16513,0.1617397,-1.9581873,-0.4730122,0.8889928,0.3873118,-1.2964572,1
 .1817383,1.8265469,-0.5431605,1.1674921,-0.2465155,0.8577492,-4.295400
 4,-0.3213772,3.5060584,-2.5054113,0.4487918,-0.4662144,2.5225009,1.062
 9909,-3.9842365,6.6152702,-0.0361043,0.5812507,-0.6141899,1.6859151,-0
 .0868576,-1.0304987,0.0709615,-0.6088889,2.3502138,0.0271904,2.2018926
 ,2.0865042,0.3563206,0.0259979,0.5791661,-0.6139191,2.3095481,6.441912
 6,8.5086448,-1.1417029,0.417217,1.8794941,-0.598832,1.0362762,-1.01904
 92,1.6638175,-1.2578012,-0.4167433,0.8285236,0.1576629,0.6803227,-0.21
 22267,-0.5155997,2.073692,-0.0331851,0.9892805,-0.2296782,-1.407269,1.
 2329586,-0.0000007,0.0000007,2.0677983,0.8779773,1.2044858,-4.2565055,
 0.,-0.0000003,-3.2999362,-0.0000005,0.,-0.0000014,0.7079357,-4.1637306
 ,0.,2.1336614,-0.9969032,0.0144158,0.,0.,-1.2656014,-1.7865609,-0.0266
 055,-2.010613,0.0000007,-0.0000006,1.6307456,-0.0000003,-0.0000008,0.0
 000006,-0.3885879,2.7206664,0.0000002,-1.5532431,1.9224582,-0.2212892,
 0.0000003,-0.0000003,0.6525115,1.2346471,-0.0162323,3.9623519,-0.00000
 07,0.0000008,-1.7138324,0.,0.,0.,0.8905604,-2.5258094,0.0000003,-0.859
 663,1.3106782,-0.5622958,-1.6140482,0.193574,-0.660946,0.0940095,-0.86
 48449,3.6547382,0.1455546,-2.1382129,1.7566517,-0.8420298,0.5439602,-2
 .5023961,-0.9147517,2.7651993,-4.9447854,-0.859663,1.3106782,-0.562295
 8,1.6140482,-0.193574,-0.660946,0.0940095,-0.8648449,3.6547382,-0.1455
 546,2.1382129,1.7566517,0.8420298,-0.5439602,2.5023961,-0.9147517,2.76
 51993,4.9447854|HyperPolar=-0.4830968,4.5525526,-41.1540587,136.817176
 6,0.,0.,0.,-4.0935263,3.2504429,0.|PG=CS [SG(B1N1O1),X(C4H10)]|NImag=0
 ||0.65604390,-0.04483060,0.59906451,0.03324779,-0.07925126,0.65628329,
 -0.14259659,-0.06156072,-0.00456791,0.66218016,-0.06177525,-0.18757530
 ,-0.01329606,-0.04267228,0.60236682,0.00482036,0.01071433,-0.09699113,
 -0.03418371,0.08496681,0.65595710,-0.00038597,-0.00105375,0.00114495,0
 .00290449,-0.00742456,-0.00638029,0.66218016,-0.00063863,0.00083190,0.
 00537936,-0.00742456,0.01972672,0.01119699,-0.04267228,0.60236682,0.00
 210246,0.00336592,0.00763575,0.00638029,-0.01119699,-0.05655556,0.0341
 8371,-0.08496681,0.65595710,0.00498162,-0.00540021,0.00577310,-0.00038
 597,-0.00063863,-0.00210246,-0.14259659,-0.06177525,-0.00482036,0.6560
 4390,-0.00540021,0.01875256,-0.01363035,-0.00105375,0.00083190,-0.0033
 6592,-0.06156072,-0.18757530,-0.01071433,-0.04483060,0.59906452,-0.005
 77310,0.01363035,-0.03986752,-0.00114495,-0.00537936,0.00763575,0.0045
 6791,0.01329606,-0.09699113,-0.03324779,0.07925126,0.65628329,-0.01993
 797,0.00483555,0.00264363,-0.32475996,0.03328487,-0.00228972,-0.000306
 23,0.00077565,0.00260211,-0.00003683,0.00001917,-0.00060754,0.35343807
 ,-0.03692924,0.00495365,-0.00020670,0.03508671,-0.06864634,-0.00449755
 ,0.00025330,-0.00110748,-0.00349156,-0.00051267,-0.00029130,0.00052197
 ,-0.04347951,0.07283411,0.00171572,-0.00170030,0.00177292,0.00290280,-
 0.00637881,-0.06568196,-0.00505265,0.00297792,0.00547410,0.00037481,-0
 .00014789,-0.00090878,0.01116862,-0.00828299,0.07079032,0.00658465,-0.
 01076119,-0.01597845,-0.09175614,0.05062835,0.06737585,-0.00019668,0.0
 0089294,-0.00095263,0.00005245,-0.00017247,0.00034044,-0.00788892,0.02
 224955,0.02783595,0.08646161,0.01359601,-0.01267846,-0.02558447,0.0486
 4043,-0.16904144,-0.13782955,0.00121197,-0.00216238,0.00280807,0.00042
 146,-0.00052955,0.00173814,0.00101861,-0.00083603,-0.00253029,-0.05324
 160,0.17453061,-0.00005167,0.00002285,0.00334710,0.05984280,-0.1261283
 0,-0.21776438,-0.00327017,0.00638064,-0.00070350,0.00048930,0.00069047
 ,-0.00049690,0.00133023,0.00020967,0.00358717,-0.06620839,0.13655924,0
 .25263265,-0.32658311,0.04009081,0.00807070,-0.02165531,0.00478475,-0.
 00239025,-0.00026915,0.00001753,0.00023360,-0.00033320,0.00016527,-0.0
 0080705,-0.00066086,-0.00411780,-0.00001090,0.00077017,-0.00044430,-0.
 00055757,0.35419087,0.04209848,-0.06750047,0.00315729,-0.03804679,0.00
 557465,0.00003472,-0.00038557,-0.00017604,-0.00034889,-0.00010477,-0.0
 0059586,0.00196453,-0.00405689,-0.00625725,0.00087424,0.00106018,0.001
 64532,-0.00021357,-0.04886075,0.07436116,0.00419536,0.00414868,-0.0647
 2975,0.00032052,0.00124838,0.00075741,-0.00001811,-0.00002303,-0.00075
 366,0.00272369,-0.00159699,0.00272243,0.00014643,-0.00040200,0.0011908
 9,-0.00046833,0.00017781,0.00012201,-0.01371520,0.00914068,0.06789194,
 -0.08843129,0.04550957,-0.06987481,0.00682156,-0.00792986,0.01701766,0
 .00001273,-0.00051926,-0.00099262,-0.00001589,0.00123652,0.00074246,0.
 00052328,0.00116471,0.00022223,0.00042179,0.00058311,-0.00056063,-0.00
 750051,0.02014508,-0.02936494,0.08513616,0.04392336,-0.15061443,0.1318
 1351,0.01482023,-0.00969164,0.02651152,0.00054438,-0.00128274,-0.00251
 240,0.00135884,-0.00290668,-0.00340212,-0.00060890,0.00163245,-0.00041
 826,0.00059284,0.00033130,-0.00097524,0.00113864,-0.00164091,0.0028283
 5,-0.05005327,0.15824609,-0.06312853,0.12065511,-0.24089946,0.00009916
 ,0.00029765,0.00092880,-0.00040324,-0.00095883,-0.00013446,0.00263199,
 -0.00615053,-0.00258087,0.00055919,0.00015441,0.00021253,0.00048328,0.
 00072948,0.00018806,-0.00076664,-0.00142257,0.00379457,0.07060124,-0.1
 3319914,0.26831700,-0.00003683,0.00001917,0.00060754,-0.00030623,0.000
 77565,-0.00260211,-0.32475996,0.03328487,0.00228972,-0.01993797,0.0048
 3555,-0.00264363,0.00076799,-0.00085619,0.00146377,0.00051005,-0.00019
 128,0.00036664,0.00004855,0.00011611,-0.00024357,-0.00003563,-0.000143
 96,0.00008448,0.35343807,-0.00051267,-0.00029130,-0.00052197,0.0002533
 0,-0.00110748,0.00349156,0.03508671,-0.06864634,0.00449755,-0.03692924
 ,0.00495365,0.00020670,-0.00085619,0.00065622,-0.00046476,-0.00026948,
 0.00006593,-0.00014883,0.00008820,-0.00009534,-0.00008101,0.00009859,0
 .00022740,0.00009678,-0.04347951,0.07283411,-0.00037481,0.00014789,-0.
 00090878,0.00505265,-0.00297792,0.00547410,-0.00290280,0.00637881,-0.0
 6568196,-0.00171572,0.00170030,0.00177292,-0.00146377,0.00046476,0.000
 25944,-0.00050787,0.00003602,-0.00003855,-0.00018971,-0.00012061,-0.00
 002263,0.00008670,0.00030260,0.00004415,-0.01116862,0.00828299,0.07079
 032,0.00005245,-0.00017247,-0.00034044,-0.00019668,0.00089294,0.000952
 63,-0.09175614,0.05062835,-0.06737585,0.00658465,-0.01076119,0.0159784
 5,0.00051005,-0.00026948,0.00050787,0.00044626,-0.00008499,0.00021664,
 0.00001035,0.00006815,0.00003665,-0.00001198,-0.00000948,0.00003044,-0
 .00788892,0.02224955,-0.02783595,0.08646161,0.00042146,-0.00052955,-0.
 00173814,0.00121197,-0.00216238,-0.00280807,0.04864043,-0.16904144,0.1
 3782955,0.01359601,-0.01267846,0.02558447,-0.00019128,0.00006593,-0.00
 003602,-0.00008499,0.00052758,-0.00097892,-0.00006193,0.00013564,0.000
 16051,0.00007897,0.00015672,0.00014547,0.00101861,-0.00083603,0.002530
 29,-0.05324160,0.17453061,-0.00048930,-0.00069047,-0.00049690,0.003270
 17,-0.00638064,-0.00070350,-0.05984280,0.12612830,-0.21776438,0.000051
 67,-0.00002285,0.00334710,-0.00036664,0.00014883,-0.00003855,-0.000216
 64,0.00097892,-0.00183525,0.00008539,0.00007915,0.00005526,0.00008440,
 0.00025769,0.00011009,-0.00133023,-0.00020967,0.00358717,0.06620839,-0
 .13655924,0.25263265,-0.00001589,0.00123652,-0.00074246,0.00001273,-0.
 00051926,0.00099262,0.00682156,-0.00792986,-0.01701766,-0.08843129,0.0
 4550957,0.06987481,-0.00003563,0.00009859,-0.00008670,-0.00001198,0.00
 007897,-0.00008440,0.00046549,-0.00026581,-0.00041033,0.00050686,-0.00
 014744,-0.00023561,0.00052328,0.00116471,-0.00022223,0.00042179,0.0005
 8311,0.00056063,0.08513616,0.00135884,-0.00290668,0.00340212,0.0005443
 8,-0.00128274,0.00251240,0.01482023,-0.00969164,-0.02651152,0.04392336
 ,-0.15061443,-0.13181351,-0.00014396,0.00022740,-0.00030260,-0.0000094
 8,0.00015672,-0.00025769,-0.00007396,-0.00002677,-0.00009538,-0.000147
 44,0.00089298,0.00114722,-0.00060890,0.00163245,0.00041826,0.00059284,
 0.00033130,0.00097524,-0.05005327,0.15824609,-0.00263199,0.00615053,-0
 .00258087,0.00040324,0.00095883,-0.00013446,-0.00009916,-0.00029765,0.
 00092880,0.06312853,-0.12065511,-0.24089946,-0.00008448,-0.00009678,0.
 00004415,-0.00003044,-0.00014547,0.00011009,0.00019851,0.00001587,0.00
 021508,0.00023561,-0.00114722,-0.00169138,-0.00055919,-0.00015441,0.00
 021253,-0.00048328,-0.00072948,0.00018806,-0.07060124,0.13319914,0.268
 31700,-0.00033320,0.00016527,0.00080705,-0.00026915,0.00001753,-0.0002
 3360,-0.02165531,0.00478475,0.00239025,-0.32658311,0.04009081,-0.00807
 070,0.00004855,0.00008820,0.00018971,0.00001035,-0.00006193,-0.0000853
 9,0.00042792,-0.00057329,-0.00102567,0.00046549,-0.00007396,-0.0001985
 1,-0.00066086,-0.00411780,0.00001090,0.00077017,-0.00044430,0.00055757
 ,-0.00750051,0.00113864,0.00076664,0.35419087,-0.00010477,-0.00059586,
 -0.00196453,-0.00038557,-0.00017604,0.00034889,-0.03804679,0.00557465,
 -0.00003472,0.04209848,-0.06750047,-0.00315729,0.00011611,-0.00009534,
 0.00012061,0.00006815,0.00013564,-0.00007915,-0.00057329,0.00063482,0.
 00038231,-0.00026581,-0.00002677,-0.00001587,-0.00405689,-0.00625725,-
 0.00087424,0.00106018,0.00164532,0.00021357,0.02014508,-0.00164091,0.0
 0142257,-0.04886075,0.07436116,-0.00272369,0.00159699,0.00272243,0.000
 01811,0.00002303,-0.00075366,-0.00032052,-0.00124838,0.00075741,-0.004
 19536,-0.00414868,-0.06472975,0.00024357,0.00008101,-0.00002263,-0.000
 03665,-0.00016051,0.00005526,0.00102567,-0.00038231,-0.00006298,0.0004
 1033,0.00009538,0.00021508,-0.00014643,0.00040200,0.00119089,0.0004683
 3,-0.00017781,0.00012201,0.02936494,-0.00282835,0.00379457,0.01371520,
 -0.00914068,0.06789194,0.00976917,-0.00804686,0.01572194,-0.09778968,0
 .04021636,-0.02489134,-0.09778967,0.04021636,0.02489133,0.00976916,-0.
 00804687,-0.01572194,-0.00477107,0.02529992,-0.04029227,0.00491931,-0.
 00683768,0.00832091,0.00354871,0.00285494,0.00054010,-0.00059056,-0.00
 479336,-0.00008164,-0.00477107,0.02529992,0.04029227,0.00491931,-0.006
 83768,-0.00832091,-0.00059057,-0.00479336,0.00008164,0.00354872,0.0028
 5494,-0.00054009,0.16932313,0.01329201,-0.02560654,0.04826279,0.036509
 05,-0.16075455,0.05516505,0.03650905,-0.16075455,-0.05516506,0.0132920
 1,-0.02560654,-0.04826280,0.00895970,-0.00592958,0.01548881,-0.0061388
 5,0.01629082,-0.01596657,0.00059648,0.00268720,-0.00087656,-0.00519237
 ,-0.00847061,-0.00037007,0.00895970,-0.00592958,-0.01548881,-0.0061388
 5,0.01629082,0.01596657,-0.00519237,-0.00847060,0.00037007,0.00059648,
 0.00268720,0.00087656,-0.09894191,0.35120873,-0.00498154,0.01148784,-0
 .02121606,-0.04149285,0.09377190,-0.21815204,0.04149286,-0.09377191,-0
 .21815205,0.00498154,-0.01148783,-0.02121605,-0.01306935,0.01421693,-0
 .01737869,-0.01103131,0.02507234,-0.04093342,0.00113991,-0.00103488,0.
 00100555,0.00180354,0.00377932,0.00204039,0.01306935,-0.01421693,-0.01
 737869,0.01103131,-0.02507233,-0.04093342,-0.00180354,-0.00377932,0.00
 204039,-0.00113991,0.00103488,0.00100555,0.,0.,0.58236986,-0.09940198,
 0.03212402,0.01996912,0.00701874,-0.00888108,-0.01499914,0.00701874,-0
 .00888109,0.01499914,-0.09940197,0.03212403,-0.01996912,0.00334301,0.0
 0174683,-0.00088197,-0.00029596,-0.00397486,0.00038046,-0.00271870,0.0
 2565205,0.03744257,0.00250492,-0.00656350,-0.00831356,0.00334301,0.001
 74683,0.00088197,-0.00029596,-0.00397486,-0.00038047,0.00250492,-0.006
 56350,0.00831356,-0.00271870,0.02565204,-0.03744257,0.00093670,0.00248
 270,0.,0.25997131,0.02764659,-0.15947684,-0.04703741,0.01379912,-0.027
 13473,-0.04810528,0.01379912,-0.02713472,0.04810528,0.02764660,-0.1594
 7684,0.04703740,0.00044267,0.00306450,0.00099699,-0.00457338,-0.009489
 43,0.00067840,0.00927509,-0.01005882,-0.01724858,-0.00505304,0.0131168
 0,0.01536237,0.00044267,0.00306450,-0.00099699,-0.00457338,-0.00948943
 ,-0.00067840,-0.00505304,0.01311680,-0.01536237,0.00927508,-0.01005883
 ,0.01724858,0.00152259,0.01234818,0.,-0.22902400,0.75625029,0.02404871
 ,-0.06317979,-0.20705591,0.00082500,-0.00889649,-0.00920332,-0.0008250
 0,0.00889648,-0.00920332,-0.02404871,0.06317979,-0.20705591,-0.0003838
 6,0.00123469,0.00049578,0.00019713,-0.00067571,0.00154861,0.00645749,-
 0.00932461,-0.00957669,0.00851422,-0.02095978,-0.03150888,0.00038386,-
 0.00123469,0.00049578,-0.00019713,0.00067571,0.00154861,-0.00851422,0.
 02095978,-0.03150888,-0.00645750,0.00932461,-0.00957669,0.,0.,0.004681
 10,0.,0.,0.60602551,-0.00290390,0.00614727,0.00612343,0.00193387,-0.00
 120517,-0.00252531,0.00193387,-0.00120517,0.00252531,-0.00290389,0.006
 14726,-0.00612343,-0.00048818,0.00014788,-0.00006132,-0.00029371,-0.00
 121491,-0.00011022,0.00029205,0.00060298,0.00035788,0.00040675,0.00003
 510,-0.00161590,-0.00048818,0.00014788,0.00006132,-0.00029371,-0.00121
 491,0.00011022,0.00040675,0.00003510,0.00161590,0.00029204,0.00060298,
 -0.00035788,-0.00073364,0.00066906,0.,-0.09464442,0.12838756,0.,0.2013
 7314,0.00624720,-0.01531238,-0.01506901,-0.00046688,-0.00100658,0.0024
 2998,-0.00046688,-0.00100659,-0.00242997,0.00624719,-0.01531238,0.0150
 6901,-0.00000348,-0.00031150,-0.00025570,-0.00006261,0.00153741,0.0002
 4905,-0.00259194,0.00245736,0.00361270,0.00048958,0.00030239,0.0039406
 8,-0.00000348,-0.00031150,0.00025570,-0.00006261,0.00153741,-0.0002490
 6,0.00048959,0.00030239,-0.00394068,-0.00259194,0.00245736,-0.00361270
 ,0.00019010,0.00033644,0.,0.13042841,-0.36704778,0.,-0.16799813,0.5589
 0039,0.01031849,-0.02612168,0.00431528,0.00197304,-0.00184151,-0.00449
 580,-0.00197304,0.00184151,-0.00449580,-0.01031849,0.02612168,0.004315
 28,-0.00047886,0.00000505,0.00017746,-0.00082506,-0.00122613,0.0001248
 8,0.00102241,-0.00217777,-0.00325636,0.00062253,-0.00234064,-0.0012509
 9,0.00047886,-0.00000505,0.00017746,0.00082506,0.00122613,0.00012488,-
 0.00062253,0.00234064,-0.00125099,-0.00102241,0.00217777,-0.00325637,0
 .,0.,-0.00011961,0.,0.,-0.10366729,0.,0.,0.51399341,-0.00357965,-0.002
 03304,-0.00084865,-0.00012813,-0.00027349,-0.00038097,-0.00102771,0.00
 071915,-0.00181979,0.00677458,0.00373065,0.00175652,0.00019342,0.00006
 728,-0.00001974,-0.00001053,-0.00006772,0.00003244,-0.00014957,0.00047
 278,0.00021048,-0.00015628,0.00013759,0.00009048,0.00006128,-0.0000380
 6,-0.00002408,0.00027727,0.00056872,0.00005100,-0.00005740,-0.00015711
 ,-0.00016338,0.00011630,-0.00077688,0.00072755,0.00015102,-0.00013094,
 0.00037410,0.00641816,0.00801987,-0.00992227,-0.05194442,0.01507794,-0
 .02740369,0.03263054,-0.00212154,0.00069234,0.00286815,0.00040872,-0.0
 0002079,-0.00009099,0.00033665,0.00009994,0.00067489,0.00372895,-0.001
 20714,-0.00341667,-0.00001229,0.00004810,-0.00000449,-0.00003426,-0.00
 021240,-0.00005732,0.00012748,-0.00012062,-0.00007825,0.00005174,-0.00
 039773,-0.00013064,-0.00009982,-0.00000754,-0.00006355,-0.00014369,-0.
 00027163,-0.00001527,-0.00019682,0.00012540,0.00028151,0.00043972,-0.0
 0102404,0.00129762,-0.00007869,-0.00016342,-0.00008816,0.00795299,-0.0
 1079683,0.02378813,0.01495761,-0.08376122,0.06908555,-0.02615041,0.088
 28594,0.00028861,-0.00150621,-0.00268296,-0.00012085,0.00053518,0.0004
 0499,-0.00042250,-0.00067428,-0.00072233,0.00058288,-0.00052924,0.0013
 5256,0.00007931,-0.00003492,-0.00001387,0.00008959,0.00024688,0.000041
 43,-0.00009253,0.00014261,0.00073874,0.00044289,-0.00075329,0.00158210
 ,0.00002887,0.00002482,0.00003975,0.00006647,0.00019476,0.00001476,-0.
 00000919,-0.00011971,0.00063327,-0.00029615,0.00038390,-0.00009178,0.0
 0001186,-0.00005718,0.00116860,-0.00100418,0.00297388,0.00178076,-0.03
 056459,0.07687855,-0.20071771,0.03412975,-0.08587813,0.20935717,0.0067
 7458,0.00373065,-0.00175652,-0.00102771,0.00071915,0.00181979,-0.00012
 813,-0.00027349,0.00038097,-0.00357965,-0.00203304,0.00084865,0.000061
 28,-0.00003806,0.00002408,0.00027727,0.00056872,-0.00005100,0.00011630
 ,-0.00077688,-0.00072755,-0.00005740,-0.00015711,0.00016338,0.00019342
 ,0.00006728,0.00001974,-0.00001053,-0.00006772,-0.00003244,-0.00015628
 ,0.00013759,-0.00009048,-0.00014957,0.00047278,-0.00021048,0.00015102,
 -0.00013093,-0.00037410,0.00641816,0.00801987,0.00992227,-0.05194442,0
 .01507794,0.02740369,0.01043111,0.00083367,-0.00321025,0.03263054,0.00
 372895,-0.00120714,0.00341667,0.00033665,0.00009994,-0.00067489,0.0004
 0872,-0.00002079,0.00009099,-0.00212154,0.00069234,-0.00286815,-0.0000
 9982,-0.00000754,0.00006355,-0.00014369,-0.00027163,0.00001527,0.00043
 972,-0.00102404,-0.00129762,-0.00019682,0.00012540,-0.00028151,-0.0000
 1229,0.00004810,0.00000449,-0.00003426,-0.00021240,0.00005732,0.000051
 74,-0.00039773,0.00013064,0.00012748,-0.00012062,0.00007825,-0.0000786
 9,-0.00016342,0.00008816,0.00795299,-0.01079683,-0.02378813,0.01495761
 ,-0.08376122,-0.06908555,0.00083367,0.00873164,0.00817237,-0.02615041,
 0.08828594,-0.00058288,0.00052924,0.00135256,0.00042250,0.00067428,-0.
 00072233,0.00012085,-0.00053518,0.00040499,-0.00028861,0.00150621,-0.0
 0268296,-0.00002887,-0.00002482,0.00003975,-0.00006647,-0.00019476,0.0
 0001476,0.00029615,-0.00038390,-0.00009178,0.00000919,0.00011971,0.000
 63327,-0.00007931,0.00003492,-0.00001387,-0.00008959,-0.00024688,0.000
 04143,-0.00044289,0.00075329,0.00158210,0.00009253,-0.00014261,0.00073
 874,-0.00001186,0.00005719,0.00116860,0.00100418,-0.00297388,0.0017807
 6,0.03056459,-0.07687855,-0.20071771,0.00321025,-0.00817237,-0.0128854
 7,-0.03412975,0.08587813,0.20935717||-0.00003369,0.00009692,0.00009365
 ,-0.00007410,0.00001229,0.00022239,-0.00007410,0.00001229,-0.00022239,
 -0.00003369,0.00009692,-0.00009365,-0.00006941,-0.00001917,-0.00005279
 ,0.00001748,-0.00004551,0.00004636,0.00006783,0.00003215,0.00002234,0.
 00001779,0.00003286,-0.00000050,-0.00006941,-0.00001917,0.00005279,0.0
 0001748,-0.00004551,-0.00004636,0.00001779,0.00003286,0.00000050,0.000
 06783,0.00003215,-0.00002234,0.00006860,-0.00007685,0.,0.00007298,-0.0
 0010042,0.,-0.00008274,0.00009438,0.,0.00004469,-0.00006808,-0.0000204
 3,0.00004469,-0.00006808,0.00002043|||@


 IF I HAVE SEEN FARTHER, IT IS BY STANDING ON THE
 SHOULDERS OF GIANTS. -- SIR ISAAC NEWTON
 Job cpu time:  0 days  0 hours  0 minutes 54.0 seconds.
 File lengths (MBytes):  RWF=     24 Int=      0 D2E=      0 Chk=      2 Scr=      1
 Normal termination of Gaussian 09 at Fri Sep 18 10:43:35 2020.
