 argument  1 = diketene1_mp2.nw
  NWChem w/ OpenMP: maximum threads =  7



============================== echo of input deck ==============================
echo

start molecule

title "diketene"
charge 0

geometry units angstroms print xyz autosym
 C                 -0.09798842    0.34086155   -0.96424183
 C                  0.91068452   -0.20359688    0.06422495
 C                 -1.41282363    0.03206059   -0.85280856
 O                  2.13160270    0.08314821   -0.03924786
 O                 -2.63374152   -0.25468458   -0.74933264
 C                  0.42522683   -1.09896714    1.21931929
 H                  0.45619605   -2.12384143    0.91342129
 H                  1.06084700   -0.96097709    2.06893435
 H                  0.23930993    0.96297046   -1.76680667
 H                 -0.57866108   -0.83419079    1.47816778
end

basis spherical
  * library 6-31+G*
end

task scf optimize
task scf freq
================================================================================


                                         
                                         


              Northwest Computational Chemistry Package (NWChem) 6.8
              ------------------------------------------------------


                    Environmental Molecular Sciences Laboratory
                       Pacific Northwest National Laboratory
                                Richland, WA 99352

                              Copyright (c) 1994-2017
                       Pacific Northwest National Laboratory
                            Battelle Memorial Institute

             NWChem is an open-source computational chemistry package
                        distributed under the terms of the
                      Educational Community License (ECL) 2.0
             A copy of the license is included with this distribution
                              in the LICENSE.TXT file

                                  ACKNOWLEDGMENT
                                  --------------

            This software and its documentation were developed at the
            EMSL at Pacific Northwest National Laboratory, a multiprogram
            national laboratory, operated for the U.S. Department of Energy
            by Battelle under Contract Number DE-AC05-76RL01830. Support
            for this work was provided by the Department of Energy Office
            of Biological and Environmental Research, Office of Basic
            Energy Sciences, and the Office of Advanced Scientific Computing.


           Job information
           ---------------

    hostname        = wbl008
    program         = /opt/nesi/mahuika/NWChem/6.8.revision47-gimkl-2017a-2017-12-14-Python-2.7.14/bin/nwchem
    date            = Tue Jul  7 00:24:49 2020

    compiled        = Thu Aug 30 14:01:01 NZST 2018
    source          = /tmp/eb-L276jJ/tmpmZaEPv-NWChem-6.8.revision47
    nwchem branch   = 6.8
    nwchem revision = v6.8-47-gdf6c956
    ga revision     = ga-5.6.3
    use scalapack   = F
    input           = diketene1_mp2.nw
    prefix          = molecule.
    data base       = ./molecule.db
    status          = startup
    nproc           =        2
    time left       =     -1s



           Memory information
           ------------------

    heap     =  233806458 doubles =   1783.8 Mbytes
    stack    =  233806463 doubles =   1783.8 Mbytes
    global   =  467612928 doubles =   3567.6 Mbytes (distinct from heap & stack)
    total    =  935225849 doubles =   7135.2 Mbytes
    verify   = yes
    hardfail = no 


           Directory information
           ---------------------

  0 permanent = .
  0 scratch   = .




                                NWChem Input Module
                                -------------------


                                     diketene
                                     --------

 Scaling coordinates for geometry "geometry" by  1.889725989
 (inverse scale =  0.529177249)

 C1  symmetry detected

          ------
          auto-z
          ------


                             Geometry "geometry" -> ""
                             -------------------------

 Output coordinates in angstroms (scale by  1.889725989 to convert to a.u.)

  No.       Tag          Charge          X              Y              Z
 ---- ---------------- ---------- -------------- -------------- --------------
    1 C                    6.0000     0.95481299     0.25259359    -0.00000104
    2 C                    6.0000     0.08664575    -1.01936774    -0.00000014
    3 C                    6.0000     0.36744185     1.47388888    -0.00000019
    4 O                    8.0000     0.63206181    -2.15342766     0.00000072
    5 O                    8.0000    -0.17797660     2.60794764     0.00000061
    6 C                    6.0000    -1.44898870    -0.90349353    -0.00000030
    7 H                    1.0000    -1.80464425    -0.87665761    -1.00880600
    8 H                    1.0000    -1.87038046    -1.74783122     0.50440315
    9 H                    1.0000     2.02177979     0.17208358     0.00000031
   10 H                    1.0000    -1.73890817    -0.00548175     0.50440186

      Atomic Mass 
      ----------- 

      C                 12.000000
      O                 15.994910
      H                  1.007825


 Effective nuclear repulsion energy (a.u.)     196.6867069792

            Nuclear Dipole moment (a.u.) 
            ----------------------------
        X                 Y               Z
 ---------------- ---------------- ----------------
     0.0000000000    -0.0000000000    -0.0000000000



                                Z-matrix (autoz)
                                -------- 

 Units are Angstrom for bonds and degrees for angles

      Type          Name      I     J     K     L     M      Value
      ----------- --------  ----- ----- ----- ----- ----- ----------
    1 Stretch                  1     2                       1.54000
    2 Stretch                  1     3                       1.35520
    3 Stretch                  1     9                       1.07000
    4 Stretch                  2     4                       1.25840
    5 Stretch                  2     6                       1.54000
    6 Stretch                  3     5                       1.25840
    7 Stretch                  6     7                       1.07000
    8 Stretch                  6     8                       1.07000
    9 Stretch                  6    10                       1.07000
   10 Bend                     1     2     4               120.00000
   11 Bend                     1     2     6               120.00000
   12 Bend                     2     1     3               120.00000
   13 Bend                     2     1     9               120.00000
   14 Bend                     2     6     7               109.47122
   15 Bend                     2     6     8               109.47122
   16 Bend                     2     6    10               109.47122
   17 Bend                     3     1     9               120.00000
   18 Bend                     4     2     6               120.00000
   19 Bend                     5     1     2               119.99994
   20 Bend                     5     1     9               120.00006
   21 Bend                     7     6     8               109.47122
   22 Bend                     7     6    10               109.47122
   23 Bend                     8     6    10               109.47122
   24 Torsion                  1     2     6     7          90.00000
   25 Torsion                  1     2     6     8        -150.00000
   26 Torsion                  1     2     6    10         -30.00000
   27 Torsion                  1     2     3     5        -180.00000
   28 Torsion                  3     1     2     4        -179.99991
   29 Torsion                  3     1     2     6           0.00009
   30 Torsion                  4     2     1     9          -0.00008
   31 Torsion                  4     2     6     7         -90.00000
   32 Torsion                  4     2     6     8          30.00000
   33 Torsion                  4     2     6    10         150.00000
   34 Torsion                  6     2     1     9         179.99992
   35 Torsion                  1     9     3     5         180.00000


            XYZ format geometry
            -------------------
    10
 geometry
 C                     0.95481299     0.25259359    -0.00000104
 C                     0.08664575    -1.01936774    -0.00000014
 C                     0.36744185     1.47388888    -0.00000019
 O                     0.63206181    -2.15342766     0.00000072
 O                    -0.17797660     2.60794764     0.00000061
 C                    -1.44898870    -0.90349353    -0.00000030
 H                    -1.80464425    -0.87665761    -1.00880600
 H                    -1.87038046    -1.74783122     0.50440315
 H                     2.02177979     0.17208358     0.00000031
 H                    -1.73890817    -0.00548175     0.50440186

 ==============================================================================
                                internuclear distances
 ------------------------------------------------------------------------------
       center one      |      center two      | atomic units |  angstroms
 ------------------------------------------------------------------------------
    2 C                |   1 C                |     2.91018  |     1.54000
    3 C                |   1 C                |     2.56096  |     1.35520
    4 O                |   2 C                |     2.37803  |     1.25840
    5 O                |   3 C                |     2.37803  |     1.25840
    6 C                |   2 C                |     2.91018  |     1.54000
    7 H                |   6 C                |     2.02201  |     1.07000
    8 H                |   6 C                |     2.02201  |     1.07000
    9 H                |   1 C                |     2.02201  |     1.07000
   10 H                |   6 C                |     2.02201  |     1.07000
 ------------------------------------------------------------------------------
                         number of included internuclear distances:          9
 ==============================================================================



 ==============================================================================
                                 internuclear angles
 ------------------------------------------------------------------------------
        center 1       |       center 2       |       center 3       |  degrees
 ------------------------------------------------------------------------------
    2 C                |   1 C                |   3 C                |   120.00
    2 C                |   1 C                |   9 H                |   120.00
    3 C                |   1 C                |   9 H                |   120.00
    1 C                |   2 C                |   4 O                |   120.00
    1 C                |   2 C                |   6 C                |   120.00
    4 O                |   2 C                |   6 C                |   120.00
    1 C                |   3 C                |   5 O                |   180.00
    2 C                |   6 C                |   7 H                |   109.47
    2 C                |   6 C                |   8 H                |   109.47
    2 C                |   6 C                |  10 H                |   109.47
    7 H                |   6 C                |   8 H                |   109.47
    7 H                |   6 C                |  10 H                |   109.47
    8 H                |   6 C                |  10 H                |   109.47
 ------------------------------------------------------------------------------
                            number of included internuclear angles:         13
 ==============================================================================



  library name resolved from: environment
  library file name is: </opt/nesi/mahuika/NWChem/6.8.revision47-gimkl-2017a-2017-12-14-Python-2.7.14/data/libraries/>
  


 Summary of "ao basis" -> "" (spherical)
 ------------------------------------------------------------------------------
       Tag                 Description            Shells   Functions and Types
 ---------------- ------------------------------  ------  ---------------------
 *                          6-31+G*                   on all atoms 




                           NWChem Geometry Optimization
                           ----------------------------




                                     diketene


 maximum gradient threshold         (gmax) =   0.000450
 rms gradient threshold             (grms) =   0.000300
 maximum cartesian step threshold   (xmax) =   0.001800
 rms cartesian step threshold       (xrms) =   0.001200
 fixed trust radius                (trust) =   0.300000
 maximum step size to saddle      (sadstp) =   0.100000
 energy precision                  (eprec) =   1.0D-07
 maximum number of steps          (nptopt) =   20
 initial hessian option           (inhess) =    0
 line search option               (linopt) =    1
 hessian update option            (modupd) =    1
 saddle point option              (modsad) =    0
 initial eigen-mode to follow     (moddir) =    0
 initial variable to follow       (vardir) =    0
 follow first negative mode     (firstneg) =    T
 apply conjugacy                    (opcg) =    F
 source of zmatrix                         =   autoz   


          -------------------
          Energy Minimization
          -------------------


 Names of Z-matrix variables 
    1              2              3              4              5         
    6              7              8              9             10         
   11             12             13             14             15         
   16             17             18             19             20         
   21             22             23             24             25         
   26             27             28             29             30         
   31             32             33             34             35         

 Variables with the same non-blank name are constrained to be equal


 Using diagonal initial Hessian 
 Scaling for Hessian diagonals: bonds = 1.00  angles = 0.25  torsions = 0.10

          --------
          Step   0
          --------


                         Geometry "geometry" -> "geometry"
                         ---------------------------------

 Output coordinates in angstroms (scale by  1.889725989 to convert to a.u.)

  No.       Tag          Charge          X              Y              Z
 ---- ---------------- ---------- -------------- -------------- --------------
    1 C                    6.0000     0.95481299     0.25259359    -0.00000104
    2 C                    6.0000     0.08664575    -1.01936774    -0.00000014
    3 C                    6.0000     0.36744185     1.47388888    -0.00000019
    4 O                    8.0000     0.63206181    -2.15342766     0.00000072
    5 O                    8.0000    -0.17797660     2.60794764     0.00000061
    6 C                    6.0000    -1.44898870    -0.90349353    -0.00000030
    7 H                    1.0000    -1.80464425    -0.87665761    -1.00880600
    8 H                    1.0000    -1.87038046    -1.74783122     0.50440315
    9 H                    1.0000     2.02177979     0.17208358     0.00000031
   10 H                    1.0000    -1.73890817    -0.00548175     0.50440186

      Atomic Mass 
      ----------- 

      C                 12.000000
      O                 15.994910
      H                  1.007825


 Effective nuclear repulsion energy (a.u.)     196.6867069792

            Nuclear Dipole moment (a.u.) 
            ----------------------------
        X                 Y               Z
 ---------------- ---------------- ----------------
     0.0000000000    -0.0000000000    -0.0000000000

                      Basis "ao basis" -> "ao basis" (spherical)
                      -----
  C (Carbon)
  ----------
            Exponent  Coefficients 
       -------------- ---------------------------------------------------------
  1 S  3.04752490E+03  0.001835
  1 S  4.57369510E+02  0.014037
  1 S  1.03948690E+02  0.068843
  1 S  2.92101550E+01  0.232184
  1 S  9.28666300E+00  0.467941
  1 S  3.16392700E+00  0.362312

  2 S  7.86827240E+00 -0.119332
  2 S  1.88128850E+00 -0.160854
  2 S  5.44249300E-01  1.143456

  3 P  7.86827240E+00  0.068999
  3 P  1.88128850E+00  0.316424
  3 P  5.44249300E-01  0.744308

  4 S  1.68714400E-01  1.000000

  5 P  1.68714400E-01  1.000000

  6 S  4.38000000E-02  1.000000

  7 P  4.38000000E-02  1.000000

  8 D  8.00000000E-01  1.000000

  O (Oxygen)
  ----------
            Exponent  Coefficients 
       -------------- ---------------------------------------------------------
  1 S  5.48467170E+03  0.001831
  1 S  8.25234950E+02  0.013950
  1 S  1.88046960E+02  0.068445
  1 S  5.29645000E+01  0.232714
  1 S  1.68975700E+01  0.470193
  1 S  5.79963530E+00  0.358521

  2 S  1.55396160E+01 -0.110778
  2 S  3.59993360E+00 -0.148026
  2 S  1.01376180E+00  1.130767

  3 P  1.55396160E+01  0.070874
  3 P  3.59993360E+00  0.339753
  3 P  1.01376180E+00  0.727159

  4 S  2.70005800E-01  1.000000

  5 P  2.70005800E-01  1.000000

  6 S  8.45000000E-02  1.000000

  7 P  8.45000000E-02  1.000000

  8 D  8.00000000E-01  1.000000

  H (Hydrogen)
  ------------
            Exponent  Coefficients 
       -------------- ---------------------------------------------------------
  1 S  1.87311370E+01  0.033495
  1 S  2.82539370E+00  0.234727
  1 S  6.40121700E-01  0.813757

  2 S  1.61277800E-01  1.000000



 Summary of "ao basis" -> "ao basis" (spherical)
 ------------------------------------------------------------------------------
       Tag                 Description            Shells   Functions and Types
 ---------------- ------------------------------  ------  ---------------------
 C                          6-31+G*                  8       18   4s3p1d
 O                          6-31+G*                  8       18   4s3p1d
 H                          6-31+G*                  2        2   2s


                                 NWChem SCF Module
                                 -----------------


                                     diketene



  ao basis        = "ao basis"
  functions       =   116
  atoms           =    10
  closed shells   =    22
  open shells     =     0
  charge          =   0.00
  wavefunction    = RHF 
  input vectors   = atomic
  output vectors  = ./molecule.movecs
  use symmetry    = F
  symmetry adapt  = F


 Summary of "ao basis" -> "ao basis" (spherical)
 ------------------------------------------------------------------------------
       Tag                 Description            Shells   Functions and Types
 ---------------- ------------------------------  ------  ---------------------
 C                          6-31+G*                  8       18   4s3p1d
 O                          6-31+G*                  8       18   4s3p1d
 H                          6-31+G*                  2        2   2s



 Forming initial guess at       0.1s


      Superposition of Atomic Density Guess
      -------------------------------------

 Sum of atomic energies:        -302.16038002

      Non-variational initial energy
      ------------------------------

 Total energy =    -304.771422
 1-e energy   =    -800.064922
 2-e energy   =     298.606793
 HOMO         =      -0.281566
 LUMO         =      -0.034301


 Starting SCF solution at       0.7s



 ----------------------------------------------
         Quadratically convergent ROHF

 Convergence threshold     :          1.000E-04
 Maximum no. of iterations :           30
 Final Fock-matrix accuracy:          1.000E-07
 ----------------------------------------------


              iter       energy          gnorm     gmax       time
             ----- ------------------- --------- --------- --------
                 1     -303.2701275787  1.74D+00  3.95D-01      2.0
                 2     -303.4395357430  5.05D-01  1.01D-01      4.5
                 3     -303.4649117274  1.67D-01  3.48D-02      5.8
                 4     -303.4693783195  7.36D-03  1.63D-03     11.5
                 5     -303.4693871148  5.11D-05  9.56D-06     19.7


       Final RHF  results 
       ------------------ 

         Total SCF energy =   -303.469387114800
      One-electron energy =   -802.411249268173
      Two-electron energy =    302.255155174164
 Nuclear repulsion energy =    196.686706979210

        Time for solution =     19.1s


             Final eigenvalues
             -----------------

              1      
    1  -20.6766
    2  -20.5776
    3  -11.4522
    4  -11.3857
    5  -11.2987
    6  -11.2522
    7   -1.4436
    8   -1.3801
    9   -1.1085
   10   -1.0221
   11   -0.8327
   12   -0.7540
   13   -0.7056
   14   -0.6767
   15   -0.6419
   16   -0.6203
   17   -0.6117
   18   -0.5844
   19   -0.5725
   20   -0.5164
   21   -0.4416
   22   -0.3953
   23    0.0577
   24    0.0625
   25    0.0794
   26    0.0840
   27    0.0926
   28    0.1058
   29    0.1087
   30    0.1295
   31    0.1337
   32    0.1466

                       ROHF Final Molecular Orbital Analysis
                       -------------------------------------

 Vector    7  Occ=2.000000D+00  E=-1.443581D+00
              MO Center= -4.0D-02,  2.3D+00,  1.2D-04, r^2= 5.1D-01
   Bfn.  Coefficient  Atom+Function         Bfn.  Coefficient  Atom+Function  
  ----- ------------  ---------------      ----- ------------  ---------------
    78      0.485653   5 O  s                74      0.440628   5 O  s         
    73     -0.201649   5 O  s                38      0.199803   3 C  s         
    40      0.150271   3 C  py        

 Vector    8  Occ=2.000000D+00  E=-1.380061D+00
              MO Center=  4.7D-01, -1.8D+00,  4.1D-05, r^2= 6.0D-01
   Bfn.  Coefficient  Atom+Function         Bfn.  Coefficient  Atom+Function  
  ----- ------------  ---------------      ----- ------------  ---------------
    60      0.438903   4 O  s                56      0.425706   4 O  s         
    20      0.214163   2 C  s                55     -0.195207   4 O  s         

 Vector    9  Occ=2.000000D+00  E=-1.108466D+00
              MO Center=  4.8D-01,  3.3D-01,  8.9D-04, r^2= 1.7D+00
   Bfn.  Coefficient  Atom+Function         Bfn.  Coefficient  Atom+Function  
  ----- ------------  ---------------      ----- ------------  ---------------
     2      0.302044   1 C  s                 6      0.261652   1 C  s         
    10     -0.256535   1 C  s                46      0.252412   3 C  s         
    38      0.211155   3 C  s                40     -0.190523   3 C  py        
     1     -0.160422   1 C  s         

 Vector   10  Occ=2.000000D+00  E=-1.022136D+00
              MO Center= -9.4D-01, -6.6D-01, -2.8D-03, r^2= 2.2D+00
   Bfn.  Coefficient  Atom+Function         Bfn.  Coefficient  Atom+Function  
  ----- ------------  ---------------      ----- ------------  ---------------
    96      0.349171   6 C  s                92      0.330497   6 C  s         
    10      0.259072   1 C  s                46     -0.226823   3 C  s         
    91     -0.175281   6 C  s                21     -0.157694   2 C  px        
    28     -0.152679   2 C  s         

 Vector   11  Occ=2.000000D+00  E=-8.326843D-01
              MO Center=  2.1D-01, -5.9D-02,  1.7D-03, r^2= 3.5D+00
   Bfn.  Coefficient  Atom+Function         Bfn.  Coefficient  Atom+Function  
  ----- ------------  ---------------      ----- ------------  ---------------
     4      0.267603   1 C  py               20     -0.236655   2 C  s         
    38      0.235802   3 C  s                24     -0.226100   2 C  s         
    42      0.211336   3 C  s                60      0.191958   4 O  s         
    78     -0.174097   5 O  s                46      0.156708   3 C  s         

 Vector   12  Occ=2.000000D+00  E=-7.539941D-01
              MO Center=  1.7D-01,  9.1D-01, -1.8D-03, r^2= 4.6D+00
   Bfn.  Coefficient  Atom+Function         Bfn.  Coefficient  Atom+Function  
  ----- ------------  ---------------      ----- ------------  ---------------
    76      0.316150   5 O  py               78      0.242817   5 O  s         
     3      0.199312   1 C  px               20     -0.165410   2 C  s         
    74      0.163650   5 O  s                80      0.163183   5 O  py        
    38     -0.159157   3 C  s               113      0.158356   9 H  s         

 Vector   13  Occ=2.000000D+00  E=-7.056343D-01
              MO Center=  4.2D-01,  1.0D+00, -2.7D-03, r^2= 3.6D+00
   Bfn.  Coefficient  Atom+Function         Bfn.  Coefficient  Atom+Function  
  ----- ------------  ---------------      ----- ------------  ---------------
    10      0.403392   1 C  s                40     -0.317362   3 C  py        
    76      0.281805   5 O  py               46     -0.271478   3 C  s         
     3     -0.253795   1 C  px               75     -0.197988   5 O  px        
    78      0.192191   5 O  s               113     -0.176498   9 H  s         
     4      0.174038   1 C  py        

 Vector   14  Occ=2.000000D+00  E=-6.767473D-01
              MO Center=  2.6D-02, -8.4D-01,  4.7D-02, r^2= 3.5D+00
   Bfn.  Coefficient  Atom+Function         Bfn.  Coefficient  Atom+Function  
  ----- ------------  ---------------      ----- ------------  ---------------
    57      0.283399   4 O  px              100      0.274999   6 C  s         
    22      0.252358   2 C  py               60      0.207918   4 O  s         
    94      0.207197   6 C  py               29      0.190915   2 C  px        
     3     -0.161954   1 C  px               58     -0.158637   4 O  py        
    61      0.158708   4 O  px        

 Vector   15  Occ=2.000000D+00  E=-6.419252D-01
              MO Center= -2.2D-01,  1.2D+00, -4.5D-02, r^2= 3.7D+00
   Bfn.  Coefficient  Atom+Function         Bfn.  Coefficient  Atom+Function  
  ----- ------------  ---------------      ----- ------------  ---------------
    77      0.424821   5 O  pz               81      0.273789   5 O  pz        
    41      0.270198   3 C  pz               95      0.195336   6 C  pz        

 Vector   16  Occ=2.000000D+00  E=-6.203362D-01
              MO Center= -9.6D-01, -3.5D-02, -1.4D-01, r^2= 4.0D+00
   Bfn.  Coefficient  Atom+Function         Bfn.  Coefficient  Atom+Function  
  ----- ------------  ---------------      ----- ------------  ---------------
    95      0.351436   6 C  pz               77     -0.303297   5 O  pz        
   109     -0.211956   7 H  s                81     -0.200207   5 O  pz        
    99      0.191354   6 C  pz        

 Vector   17  Occ=2.000000D+00  E=-6.117223D-01
              MO Center= -4.7D-04, -1.3D+00,  5.2D-03, r^2= 2.9D+00
   Bfn.  Coefficient  Atom+Function         Bfn.  Coefficient  Atom+Function  
  ----- ------------  ---------------      ----- ------------  ---------------
    58      0.397623   4 O  py               21      0.309261   2 C  px        
    93     -0.254077   6 C  px               62      0.214789   4 O  py        
    60     -0.195197   4 O  s                22     -0.186501   2 C  py        

 Vector   18  Occ=2.000000D+00  E=-5.843837D-01
              MO Center= -7.9D-01,  2.8D-01,  1.2D-01, r^2= 4.6D+00
   Bfn.  Coefficient  Atom+Function         Bfn.  Coefficient  Atom+Function  
  ----- ------------  ---------------      ----- ------------  ---------------
    94      0.329647   6 C  py               75      0.285780   5 O  px        
    79      0.198757   5 O  px               39      0.188513   3 C  px        
    98      0.186575   6 C  py              115      0.181171  10 H  s         
   111     -0.173645   8 H  s                76      0.171999   5 O  py        

 Vector   19  Occ=2.000000D+00  E=-5.725336D-01
              MO Center= -1.5D-01,  6.0D-01,  6.5D-02, r^2= 4.9D+00
   Bfn.  Coefficient  Atom+Function         Bfn.  Coefficient  Atom+Function  
  ----- ------------  ---------------      ----- ------------  ---------------
    75      0.338207   5 O  px               79      0.236450   5 O  px        
    94     -0.213271   6 C  py               57      0.197353   4 O  px        
     3     -0.183926   1 C  px               22      0.168717   2 C  py        
    76      0.164511   5 O  py               39      0.155480   3 C  px        

 Vector   20  Occ=2.000000D+00  E=-5.163689D-01
              MO Center=  9.6D-02, -1.4D+00, -4.8D-02, r^2= 2.6D+00
   Bfn.  Coefficient  Atom+Function         Bfn.  Coefficient  Atom+Function  
  ----- ------------  ---------------      ----- ------------  ---------------
    59      0.431964   4 O  pz               63      0.304999   4 O  pz        
    23      0.267568   2 C  pz               95     -0.192994   6 C  pz        
    27      0.165359   2 C  pz        

 Vector   21  Occ=2.000000D+00  E=-4.415935D-01
              MO Center=  3.0D-01, -1.5D+00,  1.4D-03, r^2= 2.2D+00
   Bfn.  Coefficient  Atom+Function         Bfn.  Coefficient  Atom+Function  
  ----- ------------  ---------------      ----- ------------  ---------------
    57      0.502555   4 O  px               61      0.369067   4 O  px        
    10     -0.300851   1 C  s               100      0.261985   6 C  s         
     6     -0.255891   1 C  s                93      0.225097   6 C  px        
    58      0.217153   4 O  py               29      0.210455   2 C  px        
    21     -0.170460   2 C  px               62      0.166936   4 O  py        

 Vector   22  Occ=2.000000D+00  E=-3.952758D-01
              MO Center=  6.0D-01,  5.6D-01, -5.2D-04, r^2= 3.1D+00
   Bfn.  Coefficient  Atom+Function         Bfn.  Coefficient  Atom+Function  
  ----- ------------  ---------------      ----- ------------  ---------------
     5      0.396534   1 C  pz                9      0.337511   1 C  pz        
    77     -0.304228   5 O  pz               81     -0.246891   5 O  pz        
    59     -0.235766   4 O  pz               41      0.232237   3 C  pz        
    63     -0.178437   4 O  pz               45      0.165085   3 C  pz        

 Vector   23  Occ=0.000000D+00  E= 5.769981D-02
              MO Center= -6.2D-03,  1.4D+00,  2.2D-02, r^2= 1.3D+01
   Bfn.  Coefficient  Atom+Function         Bfn.  Coefficient  Atom+Function  
  ----- ------------  ---------------      ----- ------------  ---------------
    28     10.416100   2 C  s               100     -6.453206   6 C  s         
    10     -4.317653   1 C  s                46      3.284594   3 C  s         
   101     -2.202001   6 C  px               29     -2.137416   2 C  px        
    11      1.859100   1 C  px               82     -1.548977   5 O  s         
    30      0.919890   2 C  py               64     -0.772383   4 O  s         

 Vector   24  Occ=0.000000D+00  E= 6.248833D-02
              MO Center=  5.4D-01,  1.1D+00, -2.1D-02, r^2= 4.4D+00
   Bfn.  Coefficient  Atom+Function         Bfn.  Coefficient  Atom+Function  
  ----- ------------  ---------------      ----- ------------  ---------------
    46     -6.752571   3 C  s                10      6.705151   1 C  s         
    28     -4.102515   2 C  s               100      3.081816   6 C  s         
    12      1.955726   1 C  py               11     -1.826251   1 C  px        
    29      1.344083   2 C  px               48      1.303389   3 C  py        
   101      0.790004   6 C  px               30     -0.784633   2 C  py        

 Vector   25  Occ=0.000000D+00  E= 7.942052D-02
              MO Center= -1.3D+00, -7.7D-02,  3.6D-02, r^2= 1.7D+01
   Bfn.  Coefficient  Atom+Function         Bfn.  Coefficient  Atom+Function  
  ----- ------------  ---------------      ----- ------------  ---------------
   100      9.224752   6 C  s                28     -5.495772   2 C  s         
    29      3.971400   2 C  px              101      3.589055   6 C  px        
    46     -2.683133   3 C  s                30      1.638994   2 C  py        
    10     -1.430603   1 C  s                48      1.412142   3 C  py        
    12      1.397543   1 C  py               47      0.436634   3 C  px        

 Vector   26  Occ=0.000000D+00  E= 8.399830D-02
              MO Center=  2.1D-01, -1.5D-01,  6.2D-02, r^2= 4.8D+00
   Bfn.  Coefficient  Atom+Function         Bfn.  Coefficient  Atom+Function  
  ----- ------------  ---------------      ----- ------------  ---------------
    10      3.273543   1 C  s                46     -2.167651   3 C  s         
    28     -1.063486   2 C  s                31     -0.713973   2 C  pz        
    48      0.623619   3 C  py               11     -0.592399   1 C  px        
    49      0.502494   3 C  pz               30     -0.444920   2 C  py        
   103      0.443929   6 C  pz               27     -0.414211   2 C  pz        

 Vector   27  Occ=0.000000D+00  E= 9.264299D-02
              MO Center=  8.8D-01,  1.4D+00, -6.9D-02, r^2= 1.7D+01
   Bfn.  Coefficient  Atom+Function         Bfn.  Coefficient  Atom+Function  
  ----- ------------  ---------------      ----- ------------  ---------------
    10     31.973062   1 C  s                46    -24.401066   3 C  s         
    28    -13.980788   2 C  s                48      7.927732   3 C  py        
   100      6.214277   6 C  s                11     -5.888288   1 C  px        
    12      4.209539   1 C  py               47     -2.571940   3 C  px        
    30     -2.423530   2 C  py              101      1.858900   6 C  px        

 Vector   28  Occ=0.000000D+00  E= 1.057829D-01
              MO Center= -6.6D-01,  1.1D-02,  5.8D-01, r^2= 1.2D+01
   Bfn.  Coefficient  Atom+Function         Bfn.  Coefficient  Atom+Function  
  ----- ------------  ---------------      ----- ------------  ---------------
    28      7.128606   2 C  s               100     -6.680558   6 C  s         
    10     -6.166526   1 C  s                46      5.029110   3 C  s         
    29     -2.895129   2 C  px              101     -2.135452   6 C  px        
    11      1.696703   1 C  px               12     -1.619726   1 C  py        
    30      1.392524   2 C  py               48     -1.101103   3 C  py        

 Vector   29  Occ=0.000000D+00  E= 1.087026D-01
              MO Center= -2.1D-01, -1.4D+00, -5.4D-01, r^2= 1.5D+01
   Bfn.  Coefficient  Atom+Function         Bfn.  Coefficient  Atom+Function  
  ----- ------------  ---------------      ----- ------------  ---------------
    28    -14.268571   2 C  s                10     13.282933   1 C  s         
   100     13.024276   6 C  s                46    -10.456569   3 C  s         
    29      5.577587   2 C  px              101      4.158998   6 C  px        
    11     -3.681742   1 C  px               30     -3.388660   2 C  py        
    12      3.199788   1 C  py               48      2.160403   3 C  py        

 Vector   30  Occ=0.000000D+00  E= 1.295376D-01
              MO Center= -9.5D-01, -1.3D-01, -1.1D-01, r^2= 1.6D+01
   Bfn.  Coefficient  Atom+Function         Bfn.  Coefficient  Atom+Function  
  ----- ------------  ---------------      ----- ------------  ---------------
    10      3.667916   1 C  s                28     -3.200112   2 C  s         
    12     -2.927878   1 C  py               29     -2.836095   2 C  px        
    47      2.027210   3 C  px              100     -1.968727   6 C  s         
    11     -1.715674   1 C  px               46      1.653286   3 C  s         
   102     -1.105825   6 C  py               48      0.885233   3 C  py        

 Vector   31  Occ=0.000000D+00  E= 1.337226D-01
              MO Center= -5.8D-01,  1.9D-01, -1.9D-02, r^2= 1.5D+01
   Bfn.  Coefficient  Atom+Function         Bfn.  Coefficient  Atom+Function  
  ----- ------------  ---------------      ----- ------------  ---------------
    46      1.998384   3 C  s                49     -1.502922   3 C  pz        
   103      1.437684   6 C  pz               10     -1.275866   1 C  s         
   100     -1.101991   6 C  s                12     -0.770777   1 C  py        
    29     -0.628597   2 C  px               47      0.389839   3 C  px        
    85      0.364955   5 O  pz               28      0.361020   2 C  s         

 Vector   32  Occ=0.000000D+00  E= 1.465931D-01
              MO Center=  1.2D+00,  4.9D-02, -2.4D-02, r^2= 1.1D+01
   Bfn.  Coefficient  Atom+Function         Bfn.  Coefficient  Atom+Function  
  ----- ------------  ---------------      ----- ------------  ---------------
    10      3.193368   1 C  s                13      2.983105   1 C  pz        
    46     -2.476271   3 C  s                49     -2.477789   3 C  pz        
    28     -1.334653   2 C  s                12      0.751723   1 C  py        
    31     -0.739842   2 C  pz              100      0.686442   6 C  s         
    48      0.663031   3 C  py               30     -0.618715   2 C  py        

 Vector   33  Occ=0.000000D+00  E= 1.557731D-01
              MO Center= -1.1D-01,  6.9D-01, -6.4D-02, r^2= 1.3D+01
   Bfn.  Coefficient  Atom+Function         Bfn.  Coefficient  Atom+Function  
  ----- ------------  ---------------      ----- ------------  ---------------
    46     21.702624   3 C  s                10    -19.062756   1 C  s         
    48     -6.571872   3 C  py               12     -6.537568   1 C  py        
   100     -4.919379   6 C  s                47      3.999153   3 C  px        
    29     -3.572906   2 C  px               28      1.871753   2 C  s         
    11      1.519310   1 C  px              101     -0.938355   6 C  px        

 Vector   34  Occ=0.000000D+00  E= 1.622856D-01
              MO Center= -1.9D-01,  3.6D-01,  1.3D-01, r^2= 1.9D+01
   Bfn.  Coefficient  Atom+Function         Bfn.  Coefficient  Atom+Function  
  ----- ------------  ---------------      ----- ------------  ---------------
    28      7.438578   2 C  s                12      6.588286   1 C  py        
    46     -5.385499   3 C  s                47     -4.945352   3 C  px        
    30      4.424487   2 C  py               10     -4.310759   1 C  s         
    11      3.579999   1 C  px              102     -2.807729   6 C  py        
    29      2.600765   2 C  px              100      1.845371   6 C  s         

 Vector   35  Occ=0.000000D+00  E= 1.662227D-01
              MO Center= -1.8D-01, -9.2D-01, -8.3D-02, r^2= 1.4D+01
   Bfn.  Coefficient  Atom+Function         Bfn.  Coefficient  Atom+Function  
  ----- ------------  ---------------      ----- ------------  ---------------
    31      4.785343   2 C  pz               13     -3.148902   1 C  pz        
   103     -2.299256   6 C  pz               28      1.492919   2 C  s         
    49      1.224600   3 C  pz               12      1.078744   1 C  py        
    46     -0.990601   3 C  s                47     -0.870248   3 C  px        
    67     -0.802441   4 O  pz               11      0.604583   1 C  px        

 Vector   36  Occ=0.000000D+00  E= 1.755868D-01
              MO Center=  3.4D-01, -1.1D+00,  3.5D-02, r^2= 1.6D+01
   Bfn.  Coefficient  Atom+Function         Bfn.  Coefficient  Atom+Function  
  ----- ------------  ---------------      ----- ------------  ---------------
    10     25.834821   1 C  s                46    -14.625340   3 C  s         
    29     -8.367737   2 C  px              100     -7.301217   6 C  s         
    30     -6.991694   2 C  py               28     -4.512869   2 C  s         
   102      2.906873   6 C  py               48      2.620221   3 C  py        
    12      1.918653   1 C  py               11     -1.763942   1 C  px        

 Vector   37  Occ=0.000000D+00  E= 1.961774D-01
              MO Center= -1.1D-01,  2.5D-01,  7.6D-02, r^2= 1.3D+01
   Bfn.  Coefficient  Atom+Function         Bfn.  Coefficient  Atom+Function  
  ----- ------------  ---------------      ----- ------------  ---------------
    46     31.759370   3 C  s                10    -15.574154   1 C  s         
    28    -10.623517   2 C  s                12     -9.972325   1 C  py        
    48     -8.817329   3 C  py              100     -5.953144   6 C  s         
    30     -5.349552   2 C  py               29     -3.719480   2 C  px        
    47      3.583934   3 C  px              101     -1.949817   6 C  px        

 Vector   38  Occ=0.000000D+00  E= 2.119534D-01
              MO Center= -3.8D-01, -4.7D-01,  1.8D-02, r^2= 1.4D+01
   Bfn.  Coefficient  Atom+Function         Bfn.  Coefficient  Atom+Function  
  ----- ------------  ---------------      ----- ------------  ---------------
   100     30.051850   6 C  s                28    -26.790033   2 C  s         
    10    -17.103177   1 C  s                46     13.065771   3 C  s         
    29     10.432861   2 C  px              101      8.648446   6 C  px        
    12     -3.458806   1 C  py               47      3.090747   3 C  px        
    48     -2.862181   3 C  py               64      1.171907   4 O  s         

 Vector   39  Occ=0.000000D+00  E= 2.215139D-01
              MO Center=  1.4D+00, -9.3D-01,  7.7D-04, r^2= 1.7D+01
   Bfn.  Coefficient  Atom+Function         Bfn.  Coefficient  Atom+Function  
  ----- ------------  ---------------      ----- ------------  ---------------
    46     44.967380   3 C  s               100    -35.827447   6 C  s         
    12    -31.890849   1 C  py               29    -29.581398   2 C  px        
    28    -16.103579   2 C  s                30    -10.058049   2 C  py        
   101     -8.086364   6 C  px               47      7.708615   3 C  px        
    10      6.879606   1 C  s                48     -6.582943   3 C  py        

 Vector   40  Occ=0.000000D+00  E= 2.327109D-01
              MO Center=  4.8D-01,  2.1D-01, -1.3D-01, r^2= 7.2D+00
   Bfn.  Coefficient  Atom+Function         Bfn.  Coefficient  Atom+Function  
  ----- ------------  ---------------      ----- ------------  ---------------
    10      5.747423   1 C  s                46     -5.531405   3 C  s         
    13     -2.010788   1 C  pz               48      1.911258   3 C  py        
    31      1.320565   2 C  pz               49      1.191630   3 C  pz        
    29     -0.994675   2 C  px                9      0.719162   1 C  pz        
    11     -0.703781   1 C  px              103     -0.701137   6 C  pz        

 Vector   41  Occ=0.000000D+00  E= 2.623444D-01
              MO Center=  3.8D-01,  3.6D-02,  1.2D-02, r^2= 1.5D+01
   Bfn.  Coefficient  Atom+Function         Bfn.  Coefficient  Atom+Function  
  ----- ------------  ---------------      ----- ------------  ---------------
    10     75.028441   1 C  s                28    -60.631243   2 C  s         
    46    -51.956483   3 C  s               100     36.108061   6 C  s         
    11    -14.791490   1 C  px               48     11.997168   3 C  py        
    29      9.592793   2 C  px              101      9.592210   6 C  px        
    30     -9.384195   2 C  py               12      7.217384   1 C  py        

 Vector   42  Occ=0.000000D+00  E= 2.977773D-01
              MO Center= -2.4D-01,  6.0D-01,  1.5D-01, r^2= 8.0D+00
   Bfn.  Coefficient  Atom+Function         Bfn.  Coefficient  Atom+Function  
  ----- ------------  ---------------      ----- ------------  ---------------
    46     23.106158   3 C  s                10    -14.484851   1 C  s         
    12     -6.602006   1 C  py               48     -4.788385   3 C  py        
    82     -4.023175   5 O  s                28     -3.755266   2 C  s         
    29     -2.571293   2 C  px              100     -2.206529   6 C  s         
    11      2.154571   1 C  px               30     -1.764389   2 C  py        

 Vector   43  Occ=0.000000D+00  E= 3.097922D-01
              MO Center= -4.1D-01, -3.4D-02,  2.9D-02, r^2= 7.7D+00
   Bfn.  Coefficient  Atom+Function         Bfn.  Coefficient  Atom+Function  
  ----- ------------  ---------------      ----- ------------  ---------------
    28     12.126972   2 C  s               100    -10.156390   6 C  s         
    10     -7.590526   1 C  s                46      4.773465   3 C  s         
    29     -3.744878   2 C  px              101     -2.660619   6 C  px        
    11      1.656328   1 C  px               48     -1.565642   3 C  py        
    82      1.551271   5 O  s                12     -1.461930   1 C  py        

 Vector   44  Occ=0.000000D+00  E= 3.436860D-01
              MO Center= -4.4D-01, -1.2D-03,  1.8D-01, r^2= 1.1D+01
   Bfn.  Coefficient  Atom+Function         Bfn.  Coefficient  Atom+Function  
  ----- ------------  ---------------      ----- ------------  ---------------
    10     13.427210   1 C  s                46    -12.474104   3 C  s         
    28     -6.613054   2 C  s               100      5.821943   6 C  s         
    48      4.861673   3 C  py               29      3.140398   2 C  px        
    11     -3.024922   1 C  px               12      1.814842   1 C  py        
   112      1.597206   8 H  s                84     -1.506275   5 O  py        

 Vector   45  Occ=0.000000D+00  E= 3.575387D-01
              MO Center=  2.4D-02,  1.2D+00,  9.5D-02, r^2= 1.1D+01
   Bfn.  Coefficient  Atom+Function         Bfn.  Coefficient  Atom+Function  
  ----- ------------  ---------------      ----- ------------  ---------------
    49     -2.446309   3 C  pz               13      2.231167   1 C  pz        
    31     -1.984030   2 C  pz               85      1.964046   5 O  pz        
    28     -1.323968   2 C  s                67      0.961291   4 O  pz        
   103      0.950083   6 C  pz               48     -0.725851   3 C  py        
   114     -0.668312   9 H  s               110      0.575389   7 H  s         

 Vector   46  Occ=0.000000D+00  E= 3.667935D-01
              MO Center=  2.5D-01,  6.8D-01, -1.0D-01, r^2= 9.2D+00
   Bfn.  Coefficient  Atom+Function         Bfn.  Coefficient  Atom+Function  
  ----- ------------  ---------------      ----- ------------  ---------------
   100     -4.945795   6 C  s                28      4.768636   2 C  s         
    29     -1.761247   2 C  px              114      1.598382   9 H  s         
    49     -1.545110   3 C  pz               48      1.349266   3 C  py        
    85      1.194326   5 O  pz              101     -1.071454   6 C  px        
    82     -1.012978   5 O  s                42     -0.991904   3 C  s         

 Vector   47  Occ=0.000000D+00  E= 3.900459D-01
              MO Center=  2.8D-01, -1.3D+00,  1.7D-01, r^2= 1.1D+01
   Bfn.  Coefficient  Atom+Function         Bfn.  Coefficient  Atom+Function  
  ----- ------------  ---------------      ----- ------------  ---------------
    10     15.426276   1 C  s                28    -12.324810   2 C  s         
    46    -10.080126   3 C  s               100      7.230160   6 C  s         
    30     -4.676750   2 C  py               12      3.653047   1 C  py        
    11     -3.261701   1 C  px               29      2.689067   2 C  px        
    48      2.259949   3 C  py               66      2.133485   4 O  py        

 Vector   48  Occ=0.000000D+00  E= 3.938882D-01
              MO Center=  4.9D-01, -9.2D-01,  2.5D-01, r^2= 1.5D+01
   Bfn.  Coefficient  Atom+Function         Bfn.  Coefficient  Atom+Function  
  ----- ------------  ---------------      ----- ------------  ---------------
    10     14.755929   1 C  s                46    -14.765952   3 C  s         
   100     -9.684768   6 C  s                28      8.994410   2 C  s         
    48      6.379522   3 C  py               29     -4.681659   2 C  px        
    30      4.101208   2 C  py              101     -2.481285   6 C  px        
    47     -1.980506   3 C  px               66     -1.971405   4 O  py        

 Vector   49  Occ=0.000000D+00  E= 4.005280D-01
              MO Center= -3.7D-01,  2.1D+00, -8.2D-03, r^2= 1.1D+01
   Bfn.  Coefficient  Atom+Function         Bfn.  Coefficient  Atom+Function  
  ----- ------------  ---------------      ----- ------------  ---------------
    46     46.726039   3 C  s                10    -29.207484   1 C  s         
    12    -19.318975   1 C  py              100    -13.027265   6 C  s         
    29    -10.591724   2 C  px               48    -10.550027   3 C  py        
    47      9.682059   3 C  px               28     -4.748066   2 C  s         
   101     -3.004978   6 C  px               83     -2.975072   5 O  px        

 Vector   50  Occ=0.000000D+00  E= 4.029364D-01
              MO Center=  3.8D-01,  1.0D-01, -2.1D-01, r^2= 1.1D+01
   Bfn.  Coefficient  Atom+Function         Bfn.  Coefficient  Atom+Function  
  ----- ------------  ---------------      ----- ------------  ---------------
    28      8.866462   2 C  s                46     -7.851877   3 C  s         
    12      6.455224   1 C  py               10     -5.591007   1 C  s         
    29      5.453412   2 C  px              100      4.376718   6 C  s         
    30      3.311934   2 C  py               47     -3.186451   3 C  px        
    11      2.174909   1 C  px               83      1.584655   5 O  px        

 Vector   51  Occ=0.000000D+00  E= 4.251790D-01
              MO Center= -6.3D-01, -8.9D-01, -4.3D-01, r^2= 8.4D+00
   Bfn.  Coefficient  Atom+Function         Bfn.  Coefficient  Atom+Function  
  ----- ------------  ---------------      ----- ------------  ---------------
    10     16.550591   1 C  s                46    -11.426916   3 C  s         
    28     -5.007037   2 C  s                29     -4.951182   2 C  px        
    48      3.320800   3 C  py              110     -2.640410   7 H  s         
    65      1.962425   4 O  px               96      1.418505   6 C  s         
   101      1.310430   6 C  px               30     -1.251718   2 C  py        

 Vector   52  Occ=0.000000D+00  E= 4.285080D-01
              MO Center=  1.3D-01, -9.8D-01, -1.4D-01, r^2= 9.5D+00
   Bfn.  Coefficient  Atom+Function         Bfn.  Coefficient  Atom+Function  
  ----- ------------  ---------------      ----- ------------  ---------------
    10     18.489669   1 C  s                46    -18.003820   3 C  s         
    48      6.281984   3 C  py               64     -5.445359   4 O  s         
    28      4.409576   2 C  s               100     -3.153595   6 C  s         
    11     -2.775338   1 C  px               82      2.397384   5 O  s         
    29     -2.166487   2 C  px               84     -2.011751   5 O  py        

 Vector   53  Occ=0.000000D+00  E= 4.424780D-01
              MO Center= -3.0D-01,  3.4D-01, -1.4D-01, r^2= 8.6D+00
   Bfn.  Coefficient  Atom+Function         Bfn.  Coefficient  Atom+Function  
  ----- ------------  ---------------      ----- ------------  ---------------
    10     23.926973   1 C  s                46    -18.282151   3 C  s         
    28     -6.054292   2 C  s                48      5.733805   3 C  py        
    82      3.235738   5 O  s                29     -2.414499   2 C  px        
    84     -2.364017   5 O  py               11     -2.219297   1 C  px        
   114     -1.902910   9 H  s                24      1.743911   2 C  s         

 Vector   54  Occ=0.000000D+00  E= 4.621485D-01
              MO Center=  4.9D-01,  2.7D-01, -2.6D-02, r^2= 9.0D+00
   Bfn.  Coefficient  Atom+Function         Bfn.  Coefficient  Atom+Function  
  ----- ------------  ---------------      ----- ------------  ---------------
   100     16.816815   6 C  s                10    -14.615921   1 C  s         
    29     10.565595   2 C  px               46      5.769218   3 C  s         
    28     -5.648170   2 C  s                82     -3.965226   5 O  s         
   101      3.930449   6 C  px               30      2.886320   2 C  py        
    42      2.388955   3 C  s                65     -2.043462   4 O  px        

 Vector   55  Occ=0.000000D+00  E= 4.996452D-01
              MO Center= -7.2D-01, -8.8D-01,  1.2D-01, r^2= 9.4D+00
   Bfn.  Coefficient  Atom+Function         Bfn.  Coefficient  Atom+Function  
  ----- ------------  ---------------      ----- ------------  ---------------
   100     31.611104   6 C  s                46    -18.182329   3 C  s         
    29     16.150490   2 C  px               28    -15.591075   2 C  s         
    12      8.162996   1 C  py              101      7.594205   6 C  px        
    30      4.877916   2 C  py               48      3.469461   3 C  py        
    82      3.171110   5 O  s                96      2.500442   6 C  s         

 Vector   56  Occ=0.000000D+00  E= 5.534560D-01
              MO Center=  2.4D-01, -5.2D-01,  5.0D-02, r^2= 5.3D+00
   Bfn.  Coefficient  Atom+Function         Bfn.  Coefficient  Atom+Function  
  ----- ------------  ---------------      ----- ------------  ---------------
    10     17.108044   1 C  s                28    -16.957970   2 C  s         
    30     -4.225733   2 C  py               46     -4.080024   3 C  s         
    29     -3.282538   2 C  px              100      3.128098   6 C  s         
    12     -2.889749   1 C  py               11     -2.643750   1 C  px        
    64      2.213354   4 O  s                 8      2.060882   1 C  py        


 center of mass
 --------------
 x =   0.07564422 y =   0.05479594 z =   0.00000001

 moments of inertia (a.u.)
 ------------------
         847.805905276147          -0.000000000000          -0.000000000000
          -0.000000000000         214.694343341747          -0.000000000000
          -0.000000000000          -0.000000000000        1051.512237590619

  Mulliken analysis of the total density
  --------------------------------------

    Atom       Charge   Shell Charges
 -----------   ------   -------------------------------------------------------
    1 C    6     6.01   2.00  0.64  2.03  0.61  1.12 -0.45  0.02  0.04
    2 C    6     5.63   2.00  0.69  1.78  0.41  0.46  0.04  0.15  0.10
    3 C    6     5.69   2.00  0.73  1.67  0.42  0.39  0.18  0.20  0.09
    4 O    8     8.52   2.00  0.91  2.80  1.03  1.73  0.01  0.01  0.03
    5 O    8     8.49   2.00  0.93  2.75  1.07  1.72  0.03 -0.03  0.03
    6 C    6     6.69   2.00  0.65  2.10  0.72  1.10  0.09 -0.01  0.04
    7 H    1     0.75   0.52  0.23
    8 H    1     0.74   0.52  0.22
    9 H    1     0.69   0.50  0.19
   10 H    1     0.79   0.53  0.26

       Multipole analysis of the density wrt the origin
       ------------------------------------------------

     L   x y z        total         open         nuclear
     -   - - -        -----         ----         -------
     0   0 0 0     -0.000000      0.000000     44.000000

     1   1 0 0     -0.334315      0.000000      0.000000
     1   0 1 0      0.511655      0.000000     -0.000000
     1   0 0 1     -0.011494      0.000000     -0.000000

     2   2 0 0    -23.251410      0.000000    129.409743
     2   1 1 0      4.789540      0.000000      9.384915
     2   1 0 1      0.044982      0.000000      0.000004
     2   0 2 0    -37.167693      0.000000    428.212022
     2   0 1 1     -0.019777      0.000000      0.000002
     2   0 0 2    -26.330585      0.000000      5.451349

                              NWChem Gradients Module
                              -----------------------


                                     diketene


  wavefunction    =   RHF     



                         RHF ENERGY GRADIENTS

    atom               coordinates                        gradient
                 x          y          z           x          y          z
   1 C       1.804335   0.477333  -0.000002    0.051400  -0.014214   0.000563
   2 C       0.163737  -1.926326  -0.000000   -0.041580   0.070816  -0.000822
   3 C       0.694364   2.785246  -0.000000    0.056687  -0.128014   0.000273
   4 O       1.194424  -4.069388   0.000001    0.039258  -0.098785   0.000458
   5 O      -0.336327   4.928306   0.000001   -0.084878   0.177983  -0.000164
   6 C      -2.738192  -1.707355  -0.000001   -0.030449  -0.004564  -0.005077
   7 H      -3.410283  -1.656643  -1.906367    0.003081  -0.000662   0.010405
   8 H      -3.534507  -3.302922   0.953184    0.000701   0.007603  -0.002704
   9 H       3.820610   0.325191   0.000001   -0.001628  -0.001696   0.000362
  10 H      -3.286060  -0.010359   0.953181    0.007408  -0.008465  -0.003293

                 ----------------------------------------
                 |  Time  |  1-e(secs)   |  2-e(secs)   |
                 ----------------------------------------
                 |  CPU   |       0.01   |       3.99   |
                 ----------------------------------------
                 |  WALL  |       0.01   |       3.99   |
                 ----------------------------------------

@ Step       Energy      Delta E   Gmax     Grms     Xrms     Xmax   Walltime
@ ---- ---------------- -------- -------- -------- -------- -------- --------
@    0    -303.46938711  0.0D+00  0.19718  0.03992  0.00000  0.00000     23.2
                                                                    



                                Z-matrix (autoz)
                                -------- 

 Units are Angstrom for bonds and degrees for angles

      Type          Name      I     J     K     L     M      Value     Gradient
      ----------- --------  ----- ----- ----- ----- ----- ---------- ----------
    1 Stretch                  1     2                       1.54000    0.04030
    2 Stretch                  1     3                       1.35520    0.05725
    3 Stretch                  1     9                       1.07000   -0.00150
    4 Stretch                  2     4                       1.25840    0.10604
    5 Stretch                  2     6                       1.54000    0.01875
    6 Stretch                  3     5                       1.25840    0.19718
    7 Stretch                  6     7                       1.07000   -0.01085
    8 Stretch                  6     8                       1.07000   -0.00755
    9 Stretch                  6    10                       1.07000   -0.01066
   10 Bend                     1     2     4               120.00000    0.00460
   11 Bend                     1     2     6               120.00000    0.00016
   12 Bend                     2     1     3               120.00000   -0.00303
   13 Bend                     2     1     9               120.00000    0.00009
   14 Bend                     2     6     7               109.47122    0.00097
   15 Bend                     2     6     8               109.47122    0.00251
   16 Bend                     2     6    10               109.47122   -0.00437
   17 Bend                     3     1     9               120.00000    0.00293
   18 Bend                     4     2     6               120.00000   -0.00476
   19 Bend                     5     1     2               119.99994    0.00080
   20 Bend                     5     1     9               120.00006   -0.00090
   21 Bend                     7     6     8               109.47122   -0.00050
   22 Bend                     7     6    10               109.47122    0.00131
   23 Bend                     8     6    10               109.47122    0.00009
   24 Torsion                  1     2     6     7          90.00000   -0.00030
   25 Torsion                  1     2     6     8        -150.00000    0.00121
   26 Torsion                  1     2     6    10         -30.00000    0.00017
   27 Torsion                  1     2     3     5        -180.00000   -0.00004
   28 Torsion                  3     1     2     4        -179.99991    0.00019
   29 Torsion                  3     1     2     6           0.00009   -0.00025
   30 Torsion                  4     2     1     9          -0.00008    0.00005
   31 Torsion                  4     2     6     7         -90.00000   -0.00075
   32 Torsion                  4     2     6     8          30.00000    0.00076
   33 Torsion                  4     2     6    10         150.00000   -0.00027
   34 Torsion                  6     2     1     9         179.99992   -0.00039
   35 Torsion                  1     9     3     5         180.00000    0.00005

 Restricting large step in mode   23 eval= 5.0D-01 step=-3.9D-01 new=-3.0D-01
                                 NWChem SCF Module
                                 -----------------


                                     diketene



  ao basis        = "ao basis"
  functions       =   116
  atoms           =    10
  closed shells   =    22
  open shells     =     0
  charge          =   0.00
  wavefunction    = RHF 
  input vectors   = ./molecule.movecs
  output vectors  = ./molecule.movecs
  use symmetry    = F
  symmetry adapt  = F


 Summary of "ao basis" -> "ao basis" (spherical)
 ------------------------------------------------------------------------------
       Tag                 Description            Shells   Functions and Types
 ---------------- ------------------------------  ------  ---------------------
 C                          6-31+G*                  8       18   4s3p1d
 O                          6-31+G*                  8       18   4s3p1d
 H                          6-31+G*                  2        2   2s



 Forming initial guess at      23.3s


 Loading old vectors from job with title :

diketene


 Starting SCF solution at      23.3s



 ----------------------------------------------
         Quadratically convergent ROHF

 Convergence threshold     :          1.000E-04
 Maximum no. of iterations :           30
 Final Fock-matrix accuracy:          1.000E-07
 ----------------------------------------------


              iter       energy          gnorm     gmax       time
             ----- ------------------- --------- --------- --------
                 1     -303.4623824490  6.92D-01  1.30D-01     25.5
                 2     -303.4940773423  1.86D-01  3.44D-02     26.8
                 3     -303.4976177689  8.84D-03  2.10D-03     31.8
                 4     -303.4976331119  2.24D-04  1.08D-04     40.7
                 5     -303.4976330644  3.02D-04  1.25D-04     68.8
                 6     -303.4976331092  1.45D-04  5.67D-05     74.0
                 7     -303.4976331001  7.86D-05  3.19D-05    102.1


       Final RHF  results 
       ------------------ 

         Total SCF energy =   -303.497633100080
      One-electron energy =   -825.318394391800
      Two-electron energy =    313.577365965164
 Nuclear repulsion energy =    208.243395326556

        Time for solution =     78.0s


             Final eigenvalues
             -----------------

              1      
    1  -20.6769
    2  -20.5566
    3  -11.4099
    4  -11.3471
    5  -11.2458
    6  -11.2387
    7   -1.5575
    8   -1.4431
    9   -1.1064
   10   -1.0112
   11   -0.8236
   12   -0.7748
   13   -0.7165
   14   -0.7009
   15   -0.6981
   16   -0.6356
   17   -0.6249
   18   -0.6124
   19   -0.5664
   20   -0.5356
   21   -0.4231
   22   -0.3767
   23    0.0592
   24    0.0812
   25    0.0917
   26    0.1053
   27    0.1081
   28    0.1159
   29    0.1298
   30    0.1331
   31    0.1354
   32    0.1516

                       ROHF Final Molecular Orbital Analysis
                       -------------------------------------

 Vector    8  Occ=2.000000D+00  E=-1.443136D+00
              MO Center=  4.5D-01, -1.7D+00,  2.0D-03, r^2= 5.1D-01
   Bfn.  Coefficient  Atom+Function         Bfn.  Coefficient  Atom+Function  
  ----- ------------  ---------------      ----- ------------  ---------------
    56      0.414422   4 O  s                60      0.397416   4 O  s         
    20      0.232477   2 C  s                55     -0.194443   4 O  s         
    22     -0.170814   2 C  py        

 Vector    9  Occ=2.000000D+00  E=-1.106354D+00
              MO Center=  4.8D-01,  3.5D-01,  3.9D-04, r^2= 1.5D+00
   Bfn.  Coefficient  Atom+Function         Bfn.  Coefficient  Atom+Function  
  ----- ------------  ---------------      ----- ------------  ---------------
    46      0.311432   3 C  s                 2      0.303320   1 C  s         
    10     -0.292540   1 C  s                 6      0.243703   1 C  s         
    40     -0.212906   3 C  py               38      0.207060   3 C  s         
     1     -0.166041   1 C  s         

 Vector   10  Occ=2.000000D+00  E=-1.011230D+00
              MO Center= -9.4D-01, -6.8D-01, -2.8D-04, r^2= 2.0D+00
   Bfn.  Coefficient  Atom+Function         Bfn.  Coefficient  Atom+Function  
  ----- ------------  ---------------      ----- ------------  ---------------
    96      0.359363   6 C  s                92      0.331183   6 C  s         
    10      0.253120   1 C  s                46     -0.215417   3 C  s         
    91     -0.176676   6 C  s                21     -0.172759   2 C  px        

 Vector   11  Occ=2.000000D+00  E=-8.236290D-01
              MO Center=  1.9D-01,  3.2D-01,  3.6D-03, r^2= 3.7D+00
   Bfn.  Coefficient  Atom+Function         Bfn.  Coefficient  Atom+Function  
  ----- ------------  ---------------      ----- ------------  ---------------
    78     -0.269114   5 O  s                 4      0.257751   1 C  py        
    38      0.238669   3 C  s                46      0.229449   3 C  s         
    76     -0.209269   5 O  py               20     -0.200735   2 C  s         
    42      0.200754   3 C  s                24     -0.181680   2 C  s         
    60      0.180187   4 O  s                74     -0.159851   5 O  s         

 Vector   12  Occ=2.000000D+00  E=-7.747762D-01
              MO Center= -4.9D-02,  1.5D+00,  3.1D-03, r^2= 3.5D+00
   Bfn.  Coefficient  Atom+Function         Bfn.  Coefficient  Atom+Function  
  ----- ------------  ---------------      ----- ------------  ---------------
    76      0.418681   5 O  py               78      0.356511   5 O  s         
    40     -0.233988   3 C  py               39      0.186296   3 C  px        
    74      0.184443   5 O  s                80      0.177103   5 O  py        
    75     -0.175005   5 O  px                4      0.154220   1 C  py        
    20     -0.152155   2 C  s         

 Vector   13  Occ=2.000000D+00  E=-7.165127D-01
              MO Center=  4.1D-01,  2.4D-01, -5.6D-03, r^2= 3.4D+00
   Bfn.  Coefficient  Atom+Function         Bfn.  Coefficient  Atom+Function  
  ----- ------------  ---------------      ----- ------------  ---------------
     3      0.261255   1 C  px               40      0.244918   3 C  py        
    75      0.243576   5 O  px               10     -0.227959   1 C  s         
   113      0.189787   9 H  s                93     -0.158242   6 C  px        
    21      0.153701   2 C  px               57      0.154446   4 O  px        

 Vector   14  Occ=2.000000D+00  E=-7.008627D-01
              MO Center=  4.1D-02,  1.8D+00,  1.4D-03, r^2= 1.6D+00
   Bfn.  Coefficient  Atom+Function         Bfn.  Coefficient  Atom+Function  
  ----- ------------  ---------------      ----- ------------  ---------------
    77      0.502874   5 O  pz               41      0.320877   3 C  pz        
    81      0.310389   5 O  pz        

 Vector   15  Occ=2.000000D+00  E=-6.981064D-01
              MO Center=  7.4D-02, -1.9D-01,  2.1D-02, r^2= 4.4D+00
   Bfn.  Coefficient  Atom+Function         Bfn.  Coefficient  Atom+Function  
  ----- ------------  ---------------      ----- ------------  ---------------
    57      0.279743   4 O  px               60      0.239611   4 O  s         
    75     -0.225260   5 O  px              100      0.202005   6 C  s         
    22      0.196910   2 C  py               39     -0.187160   3 C  px        
    29      0.154661   2 C  px               58     -0.152169   4 O  py        

 Vector   16  Occ=2.000000D+00  E=-6.355537D-01
              MO Center=  1.7D-02, -4.1D-01,  1.3D-02, r^2= 4.5D+00
   Bfn.  Coefficient  Atom+Function         Bfn.  Coefficient  Atom+Function  
  ----- ------------  ---------------      ----- ------------  ---------------
    58      0.333207   4 O  py               75     -0.275055   5 O  px        
    22     -0.257060   2 C  py               60     -0.242179   4 O  s         
    21      0.186355   2 C  px               79     -0.180453   5 O  px        
    93     -0.177318   6 C  px               62      0.150952   4 O  py        

 Vector   17  Occ=2.000000D+00  E=-6.248632D-01
              MO Center= -7.5D-01, -9.8D-01, -1.3D-01, r^2= 2.5D+00
   Bfn.  Coefficient  Atom+Function         Bfn.  Coefficient  Atom+Function  
  ----- ------------  ---------------      ----- ------------  ---------------
    95      0.333155   6 C  pz               59      0.258386   4 O  pz        
    23      0.233980   2 C  pz              109     -0.204103   7 H  s         
    99      0.183059   6 C  pz               63      0.169087   4 O  pz        

 Vector   18  Occ=2.000000D+00  E=-6.124076D-01
              MO Center=  3.1D-01, -7.2D-02,  2.5D-02, r^2= 4.1D+00
   Bfn.  Coefficient  Atom+Function         Bfn.  Coefficient  Atom+Function  
  ----- ------------  ---------------      ----- ------------  ---------------
    58     -0.274059   4 O  py               28      0.250420   2 C  s         
     3      0.223628   1 C  px               21     -0.211789   2 C  px        
    75     -0.201799   5 O  px              113      0.185120   9 H  s         
    76     -0.177873   5 O  py              100     -0.174951   6 C  s         
    39     -0.154469   3 C  px               62     -0.152694   4 O  py        

 Vector   19  Occ=2.000000D+00  E=-5.663961D-01
              MO Center= -1.0D+00, -8.1D-01,  1.9D-01, r^2= 2.6D+00
   Bfn.  Coefficient  Atom+Function         Bfn.  Coefficient  Atom+Function  
  ----- ------------  ---------------      ----- ------------  ---------------
    94      0.384173   6 C  py              111     -0.224968   8 H  s         
    98      0.220027   6 C  py              115      0.201777  10 H  s         
     3      0.175974   1 C  px              116      0.167109  10 H  s         
    57     -0.166179   4 O  px              112     -0.152981   8 H  s         

 Vector   20  Occ=2.000000D+00  E=-5.356291D-01
              MO Center= -3.5D-01, -1.3D+00, -1.0D-01, r^2= 2.5D+00
   Bfn.  Coefficient  Atom+Function         Bfn.  Coefficient  Atom+Function  
  ----- ------------  ---------------      ----- ------------  ---------------
    59      0.392122   4 O  pz               95     -0.281249   6 C  pz        
    63      0.269356   4 O  pz               23      0.236164   2 C  pz        
   109      0.186797   7 H  s                99     -0.173803   6 C  pz        

 Vector   21  Occ=2.000000D+00  E=-4.230818D-01
              MO Center=  2.2D-01, -1.3D+00,  2.6D-03, r^2= 2.2D+00
   Bfn.  Coefficient  Atom+Function         Bfn.  Coefficient  Atom+Function  
  ----- ------------  ---------------      ----- ------------  ---------------
    57      0.464992   4 O  px               10     -0.395804   1 C  s         
    61      0.351547   4 O  px                6     -0.297052   1 C  s         
    93      0.256763   6 C  px               58      0.240451   4 O  py        
   100      0.221523   6 C  s                29      0.187606   2 C  px        
    62      0.186471   4 O  py                4      0.184544   1 C  py        

 Vector   22  Occ=2.000000D+00  E=-3.767241D-01
              MO Center=  6.3D-01,  5.1D-01, -7.0D-04, r^2= 2.5D+00
   Bfn.  Coefficient  Atom+Function         Bfn.  Coefficient  Atom+Function  
  ----- ------------  ---------------      ----- ------------  ---------------
     5      0.427822   1 C  pz                9      0.358825   1 C  pz        
    77     -0.285576   5 O  pz               81     -0.246749   5 O  pz        
    59     -0.213580   4 O  pz               41      0.202137   3 C  pz        
    63     -0.165327   4 O  pz               45      0.163894   3 C  pz        

 Vector   23  Occ=0.000000D+00  E= 5.922435D-02
              MO Center= -1.8D-03,  1.7D+00, -2.1D-03, r^2= 1.3D+01
   Bfn.  Coefficient  Atom+Function         Bfn.  Coefficient  Atom+Function  
  ----- ------------  ---------------      ----- ------------  ---------------
    28     10.642422   2 C  s               100     -7.046210   6 C  s         
    10     -4.282399   1 C  s                46      3.847141   3 C  s         
    29     -2.519983   2 C  px              101     -2.225663   6 C  px        
    82     -1.965849   5 O  s                11      1.913756   1 C  px        
    30      0.977722   2 C  py               64     -0.817479   4 O  s         

 Vector   24  Occ=0.000000D+00  E= 8.116431D-02
              MO Center= -1.4D+00,  9.2D-02,  5.5D-02, r^2= 1.7D+01
   Bfn.  Coefficient  Atom+Function         Bfn.  Coefficient  Atom+Function  
  ----- ------------  ---------------      ----- ------------  ---------------
   100     10.788761   6 C  s                28     -8.805228   2 C  s         
    46     -7.218667   3 C  s                10      4.556640   1 C  s         
    29      4.101372   2 C  px              101      3.936946   6 C  px        
    48      2.781276   3 C  py               12      1.734382   1 C  py        
    30      1.168345   2 C  py               11     -0.945119   1 C  px        

 Vector   25  Occ=0.000000D+00  E= 9.174058D-02
              MO Center=  1.4D+00,  9.6D-01, -1.8D-02, r^2= 1.5D+01
   Bfn.  Coefficient  Atom+Function         Bfn.  Coefficient  Atom+Function  
  ----- ------------  ---------------      ----- ------------  ---------------
    10     37.041397   1 C  s                46    -29.813172   3 C  s         
    28    -13.501478   2 C  s                48      8.508478   3 C  py        
    11     -6.271547   1 C  px               12      5.660869   1 C  py        
   100      5.459089   6 C  s                47     -2.792741   3 C  px        
    30     -2.689874   2 C  py              101      1.367288   6 C  px        

 Vector   26  Occ=0.000000D+00  E= 1.053390D-01
              MO Center= -5.3D-01,  7.1D-01,  2.5D-01, r^2= 1.2D+01
   Bfn.  Coefficient  Atom+Function         Bfn.  Coefficient  Atom+Function  
  ----- ------------  ---------------      ----- ------------  ---------------
    28      4.124685   2 C  s               100     -4.096763   6 C  s         
    10     -3.406645   1 C  s                46      3.071506   3 C  s         
    29     -1.835585   2 C  px               49     -1.480564   3 C  pz        
   101     -1.254629   6 C  px               12     -1.091313   1 C  py        
    11      0.839297   1 C  px              103     -0.662048   6 C  pz        

 Vector   27  Occ=0.000000D+00  E= 1.081424D-01
              MO Center= -2.0D-01, -9.4D-02, -2.0D-01, r^2= 1.6D+01
   Bfn.  Coefficient  Atom+Function         Bfn.  Coefficient  Atom+Function  
  ----- ------------  ---------------      ----- ------------  ---------------
    10     18.917788   1 C  s                46    -16.278767   3 C  s         
    28    -15.841215   2 C  s               100     14.646280   6 C  s         
    29      6.270783   2 C  px              101      4.592475   6 C  px        
    12      4.541543   1 C  py               48      3.847318   3 C  py        
    11     -3.670345   1 C  px               30     -2.765706   2 C  py        

 Vector   28  Occ=0.000000D+00  E= 1.158868D-01
              MO Center=  2.3D-01, -2.6D-01, -4.2D-02, r^2= 1.2D+01
   Bfn.  Coefficient  Atom+Function         Bfn.  Coefficient  Atom+Function  
  ----- ------------  ---------------      ----- ------------  ---------------
    28      9.975425   2 C  s               100     -7.875891   6 C  s         
    10     -6.209698   1 C  s                46      3.332131   3 C  s         
    11      3.025019   1 C  px               29     -2.961338   2 C  px        
    30      2.957704   2 C  py              101     -2.366177   6 C  px        
    12     -1.261096   1 C  py               47     -1.213763   3 C  px        

 Vector   29  Occ=0.000000D+00  E= 1.297902D-01
              MO Center= -8.4D-01,  2.8D-01, -1.7D-01, r^2= 1.5D+01
   Bfn.  Coefficient  Atom+Function         Bfn.  Coefficient  Atom+Function  
  ----- ------------  ---------------      ----- ------------  ---------------
    10      9.403365   1 C  s                28     -4.666657   2 C  s         
    12     -4.100743   1 C  py               29     -4.099554   2 C  px        
   100     -3.667116   6 C  s                11     -2.306629   1 C  px        
    48      2.142077   3 C  py               47      1.780717   3 C  px        
   101     -0.979011   6 C  px               46     -0.924367   3 C  s         

 Vector   30  Occ=0.000000D+00  E= 1.331349D-01
              MO Center= -1.0D+00,  3.1D-02,  2.8D-02, r^2= 1.4D+01
   Bfn.  Coefficient  Atom+Function         Bfn.  Coefficient  Atom+Function  
  ----- ------------  ---------------      ----- ------------  ---------------
    49      1.713090   3 C  pz              100      1.658386   6 C  s         
   103     -1.637005   6 C  pz               46     -1.404783   3 C  s         
    12      1.323007   1 C  py               29      1.169248   2 C  px        
    10     -0.863428   1 C  s                13     -0.790802   1 C  pz        
    31      0.757381   2 C  pz               28      0.626278   2 C  s         

 Vector   31  Occ=0.000000D+00  E= 1.353951D-01
              MO Center=  3.3D-01, -4.2D-01,  8.9D-02, r^2= 7.7D+00
   Bfn.  Coefficient  Atom+Function         Bfn.  Coefficient  Atom+Function  
  ----- ------------  ---------------      ----- ------------  ---------------
    31      1.909790   2 C  pz               46      1.070312   3 C  s         
    12     -0.933221   1 C  py               49     -0.927759   3 C  pz        
    67     -0.662438   4 O  pz              103     -0.657393   6 C  pz        
    29     -0.529647   2 C  px              100     -0.512054   6 C  s         
    47      0.426725   3 C  px               10     -0.380580   1 C  s         

 Vector   32  Occ=0.000000D+00  E= 1.515739D-01
              MO Center=  2.3D-01,  3.2D-02,  1.2D-01, r^2= 1.2D+01
   Bfn.  Coefficient  Atom+Function         Bfn.  Coefficient  Atom+Function  
  ----- ------------  ---------------      ----- ------------  ---------------
    46     27.408085   3 C  s                10    -23.236167   1 C  s         
    12     -8.087286   1 C  py               48     -7.013638   3 C  py        
   100     -5.763536   6 C  s                29     -4.053323   2 C  px        
    47      3.466799   3 C  px               11      2.167878   1 C  px        
    28      1.612152   2 C  s                30      1.476742   2 C  py        

 Vector   33  Occ=0.000000D+00  E= 1.565471D-01
              MO Center=  8.5D-01,  1.6D-02, -2.2D-01, r^2= 1.0D+01
   Bfn.  Coefficient  Atom+Function         Bfn.  Coefficient  Atom+Function  
  ----- ------------  ---------------      ----- ------------  ---------------
    46     16.845045   3 C  s                10    -12.554984   1 C  s         
    12     -4.626540   1 C  py               48     -4.607204   3 C  py        
   100     -3.951291   6 C  s                29     -2.851158   2 C  px        
    13      2.378558   1 C  pz               47      1.664975   3 C  px        
    49     -1.641870   3 C  pz               11      1.400526   1 C  px        

 Vector   34  Occ=0.000000D+00  E= 1.621066D-01
              MO Center= -3.2D-01,  3.9D-01,  5.0D-04, r^2= 1.9D+01
   Bfn.  Coefficient  Atom+Function         Bfn.  Coefficient  Atom+Function  
  ----- ------------  ---------------      ----- ------------  ---------------
    46     13.646961   3 C  s                28    -10.790056   2 C  s         
    12     -9.894687   1 C  py               47      6.093415   3 C  px        
    30     -4.536138   2 C  py               11     -3.724233   1 C  px        
    29     -3.306957   2 C  px              102      2.871922   6 C  py        
   100     -2.294626   6 C  s                48     -1.865685   3 C  py        

 Vector   35  Occ=0.000000D+00  E= 1.746930D-01
[...]
          27    -0.00507    -0.05434    -0.21487     0.02425    -0.16073     0.01564
          28    -0.09108    -0.00280     0.06141    -0.03095     0.08744    -0.06462
          29     0.08448     0.05269    -0.01394    -0.11099     0.00334    -0.07439
          30     0.00721    -0.03781     0.04135    -0.03864     0.25518    -0.02489

                    7           8           9          10          11          12
 
 P.Frequency       61.00      127.00      156.46      424.34      539.21      541.03
 
           1     0.00125     0.00327    -0.09281     0.08876     0.05862    -0.00027
           2    -0.00560    -0.01465     0.01136     0.00720     0.06344     0.00124
           3    -0.06208    -0.16251    -0.00287     0.00113    -0.00453     0.01422
           4    -0.00004     0.00046    -0.03692    -0.04220     0.05672    -0.00340
           5     0.00019    -0.00208    -0.02558     0.08431    -0.00152     0.01501
           6     0.00217    -0.02284     0.00157    -0.00846     0.00141     0.16619
           7    -0.00000     0.00065    -0.02065     0.13111     0.00818    -0.00043
           8    -0.00001    -0.00291     0.04345     0.01354     0.07241     0.00160
           9    -0.00021    -0.03255    -0.00433     0.00140    -0.00630     0.01873
          10    -0.00055    -0.00266     0.04039    -0.03587    -0.14109     0.00119
          11     0.00243     0.01186     0.01356     0.09110    -0.10597    -0.00482
          12     0.02706     0.13177    -0.00044    -0.00893     0.00666    -0.05473
          13    -0.00117    -0.00192     0.12001    -0.03607    -0.03354     0.00041
          14     0.00526     0.00872     0.10667    -0.06286     0.06111    -0.00169
          15     0.05817     0.09621    -0.00722     0.00496    -0.00624    -0.01813
          16     0.00055     0.00108    -0.04439    -0.06990     0.08281     0.00027
          17    -0.00243    -0.00490    -0.14586    -0.08848    -0.05963    -0.00139
          18    -0.02698    -0.05395     0.01228     0.00656     0.00704    -0.01580
          19     0.03155     0.00641    -0.08716    -0.17903     0.02050     0.24582
          20    -0.48741     0.18613    -0.17325    -0.16101    -0.10458     0.02517
          21    -0.27727     0.03960     0.01370     0.00980     0.00716    -0.09020
          22    -0.00946     0.00503     0.03887     0.13973     0.20785     0.00380
          23     0.04220    -0.02251    -0.18183    -0.17894    -0.11222    -0.01771
          24     0.46662    -0.24873     0.01724     0.01899     0.01416    -0.19693
          25     0.00284     0.00487    -0.09108     0.07693     0.06642     0.01262
          26    -0.01294    -0.02202     0.00900    -0.14480     0.14340    -0.05836
          27    -0.14343    -0.24426    -0.00260     0.01468    -0.01207    -0.64549
          28    -0.01861    -0.00869    -0.08719    -0.17917     0.01995    -0.24209
          29     0.42969    -0.17607    -0.17317    -0.16076    -0.10416    -0.04165
          30    -0.36127     0.07206     0.01403     0.01194     0.01234    -0.09404

                   13          14          15          16          17          18
 
 P.Frequency      619.93      682.85      725.78      873.90     1115.24     1148.87
 
           1     0.00174    -0.01839    -0.00272     0.13603    -0.08765    -0.00066
           2    -0.00786     0.01303     0.01258     0.04847    -0.04408     0.00277
           3    -0.08693    -0.00167     0.13910    -0.00166     0.00221     0.03091
           4     0.00087    -0.03393     0.00241     0.06004     0.05745     0.00293
           5    -0.00402    -0.10270    -0.01104    -0.02671     0.00608    -0.01304
           6    -0.04431     0.00878    -0.12100     0.00366     0.00065    -0.14468
           7    -0.00482     0.15196     0.00044    -0.06699     0.03882    -0.00003
           8     0.02186     0.12103    -0.00118    -0.01949     0.02438     0.00027
           9     0.24205    -0.00789    -0.01469     0.00040    -0.00142     0.00286
          10    -0.00032     0.05638    -0.00078     0.03920     0.03429    -0.00055
          11     0.00164    -0.06506     0.00370    -0.05397    -0.05267     0.00252
          12     0.01804     0.00693     0.04198     0.00565     0.00543     0.02815
          13     0.00192    -0.07782    -0.00003     0.01551    -0.01229     0.00004
          14    -0.00868     0.03669    -0.00018     0.02117    -0.00078    -0.00019
          15    -0.09610    -0.00486    -0.00259    -0.00160    -0.00018    -0.00193
          16     0.00003    -0.05624     0.00043    -0.16615    -0.01782    -0.00248
          17    -0.00032    -0.00229    -0.00243     0.01948     0.12561     0.01105
          18    -0.00369    -0.00090    -0.02681    -0.00511    -0.01173     0.12219
          19    -0.05505     0.05811    -0.24347    -0.21728    -0.32845     0.46410
          20     0.00294     0.08345     0.01463    -0.01167    -0.15725    -0.08642
          21     0.01848     0.00105     0.07125    -0.00530    -0.03928    -0.10150
          22    -0.00084    -0.26626    -0.00291    -0.14748     0.51025     0.00522
          23     0.00341     0.08656     0.01169     0.00615    -0.10561    -0.02341
          24     0.03739    -0.01340     0.12846    -0.00356     0.01991    -0.25909
          25     0.00226    -0.02609     0.01228     0.15553    -0.09117     0.00105
          26    -0.01015    -0.14776    -0.05685     0.27833    -0.07351    -0.00491
          27    -0.11329     0.01340    -0.62877    -0.02174     0.00468    -0.05602
          28     0.05421     0.05780     0.24034    -0.21753    -0.33032    -0.45942
          29     0.00067     0.08210    -0.00060    -0.01131    -0.14886     0.06519
          30     0.02089    -0.01387     0.08239    -0.00146     0.05369    -0.13394

                   19          20          21          22          23          24
 
 P.Frequency     1212.10     1353.44     1509.84     1551.10     1609.69     1620.40
 
           1     0.10738    -0.07532     0.00895     0.01144    -0.00275     0.00006
           2    -0.08146     0.00983    -0.21738     0.05122    -0.01127    -0.00032
           3     0.00950    -0.00241     0.01980    -0.00439     0.00097    -0.00321
           4    -0.02299     0.18621     0.04083    -0.05239     0.02314    -0.00033
           5    -0.00466     0.10507     0.02851    -0.03537     0.00119     0.00169
           6    -0.00008    -0.00572    -0.00172     0.00213     0.00032     0.01873
           7    -0.08656     0.00293     0.02555    -0.00517     0.00290    -0.00002
           8     0.00659     0.00601     0.02576    -0.00612     0.00382     0.00012
           9    -0.00231    -0.00047    -0.00183     0.00045    -0.00029     0.00122
          10     0.01117    -0.02651    -0.01447     0.00436    -0.01243     0.00000
          11     0.00122    -0.02348     0.03721     0.00304     0.01571    -0.00009
          12     0.00012     0.00158    -0.00365    -0.00019    -0.00166    -0.00135
          13    -0.02575     0.00593    -0.03873     0.00798    -0.00159    -0.00000
          14     0.09623    -0.02041     0.06872    -0.01305     0.00081    -0.00000
          15    -0.00921     0.00196    -0.00698     0.00134    -0.00010    -0.00010
          16     0.01225    -0.03812     0.01997     0.13738     0.00541    -0.00108
          17     0.01322    -0.05267    -0.02394     0.00311     0.05098     0.00493
          18    -0.00092     0.00398     0.00255     0.00249    -0.00460     0.05351
          19    -0.01321    -0.06041    -0.09481    -0.46581     0.12054    -0.31779
          20    -0.02143     0.08728     0.04291    -0.06629    -0.52858    -0.35777
          21    -0.00838     0.06849     0.07125     0.17284    -0.31901    -0.03057
          22     0.06672    -0.35040    -0.16187    -0.36268    -0.34307     0.01356
          23    -0.01005     0.07977     0.05411     0.21247     0.18746    -0.06299
          24     0.00220    -0.01427    -0.00811    -0.02655    -0.02262    -0.70045
          25     0.07177    -0.10687     0.05785     0.00480    -0.00131     0.00005
          26    -0.70599    -0.35633     0.41991    -0.04237     0.01011    -0.00019
          27     0.06525     0.02997    -0.03675     0.00395    -0.00095    -0.00240
          28    -0.01381    -0.05721    -0.09167    -0.45873     0.10452     0.32040
          29    -0.01960     0.07333     0.02905    -0.09791    -0.46357     0.34596
          30     0.01150    -0.08537    -0.08151    -0.17667     0.41349    -0.07999

                   25          26          27          28          29          30
 
 P.Frequency     1958.50     2360.63     3204.96     3261.64     3325.34     3399.84
 
           1     0.00908    -0.02338     0.00068    -0.00000    -0.00049    -0.08202
           2    -0.01919     0.04963     0.00007    -0.00001    -0.00026     0.00707
           3     0.00191    -0.00495     0.00001    -0.00006     0.00001    -0.00224
           4    -0.11396    -0.00096    -0.00275    -0.00001    -0.00082     0.00053
           5     0.19537     0.02182    -0.00025     0.00006     0.00210     0.00213
           6    -0.01991    -0.00199    -0.00003     0.00072    -0.00021    -0.00018
           7    -0.00753     0.09480     0.00045    -0.00000    -0.00016     0.00135
           8     0.01610    -0.21570    -0.00052     0.00001    -0.00013    -0.00273
           9    -0.00161     0.02138     0.00006     0.00013     0.00001     0.00027
          10     0.06880     0.00387     0.00027    -0.00000     0.00017     0.00016
          11    -0.13013    -0.01263    -0.00009     0.00001    -0.00093    -0.00030
          12     0.01312     0.00122     0.00001     0.00015     0.00009     0.00003
          13     0.00383    -0.05344    -0.00025     0.00000     0.00003    -0.00024
          14    -0.00913     0.12083     0.00032    -0.00000     0.00001    -0.00058
          15     0.00090    -0.01198    -0.00003    -0.00000    -0.00000     0.00005
          16     0.01503    -0.00049     0.04603    -0.00189     0.01837     0.00043
          17    -0.01155    -0.00044    -0.02587     0.00788     0.08547    -0.00045
          18     0.00134     0.00003     0.00347     0.08750    -0.00726     0.00005
          19     0.03643    -0.00000    -0.18752    -0.20238     0.06836    -0.00092
          20    -0.02615    -0.00760     0.26775     0.29000    -0.08502     0.00169
          21    -0.01277    -0.00166    -0.56123    -0.56857     0.19636    -0.00345
          22    -0.07643    -0.01028    -0.12942     0.00034    -0.35235     0.00017
          23     0.03740     0.00542    -0.31882     0.00318    -0.81873     0.00170
          24    -0.00493    -0.00069     0.02626     0.01710     0.06691    -0.00015
          25     0.01103    -0.03616    -0.00435     0.00007     0.00324     0.95219
          26     0.07021     0.01498     0.00215    -0.00015    -0.00035    -0.06334
          27    -0.00611    -0.00211    -0.00028    -0.00156     0.00009     0.02432
          28     0.03585    -0.00010    -0.20786     0.22474     0.07634    -0.00106
          29    -0.02329    -0.00718     0.36163    -0.38797    -0.11946     0.00230
          30     0.01871     0.00299     0.49383    -0.50063    -0.17611     0.00309



 ----------------------------------------------------------------------------
 Normal Eigenvalue ||    Projected Derivative Dipole Moments (debye/angs)
  Mode   [cm**-1]  ||      [d/dqX]             [d/dqY]           [d/dqZ]
 ------ ---------- || ------------------ ------------------ -----------------
    1       -0.000 ||       0.082               0.043             0.003
    2        0.000 ||       0.001              -0.013            -0.129
    3        0.000 ||      -0.005               0.011             0.132
    4        0.000 ||      -0.001               0.001             0.013
    5        0.000 ||      -0.018              -0.001             0.083
    6        0.000 ||      -0.096              -0.050            -0.008
    7       60.995 ||       0.004              -0.019            -0.211
    8      126.998 ||       0.008              -0.036            -0.393
    9      156.456 ||      -0.379              -0.256             0.016
   10      424.340 ||       0.312              -0.120             0.017
   11      539.211 ||       0.585               0.346            -0.020
   12      541.029 ||      -0.006               0.035             0.387
   13      619.931 ||      -0.011               0.051             0.560
   14      682.854 ||      -0.003              -0.405             0.038
   15      725.778 ||       0.025              -0.119            -1.312
   16      873.898 ||      -0.154              -0.166             0.012
   17     1115.236 ||       0.230               0.952            -0.081
   18     1148.869 ||       0.008              -0.036            -0.407
   19     1212.095 ||      -0.338              -0.138             0.006
   20     1353.435 ||      -1.023              -1.793             0.141
   21     1509.837 ||       0.306               1.354            -0.116
   22     1551.096 ||       0.834               0.646            -0.041
   23     1609.695 ||       0.121              -0.330             0.033
   24     1620.404 ||       0.011              -0.047            -0.510
   25     1958.496 ||      -1.297               3.601            -0.351
   26     2360.634 ||       1.473              -5.171             0.497
   27     3204.961 ||       0.269              -0.266             0.031
   28     3261.638 ||       0.012              -0.051            -0.560
   29     3325.335 ||      -0.179              -0.412             0.033
   30     3399.836 ||       0.524              -0.299             0.037
 ----------------------------------------------------------------------------



  
  
 ----------------------------------------------------------------------------
 Normal Eigenvalue ||           Projected Infra Red Intensities
  Mode   [cm**-1]  || [atomic units] [(debye/angs)**2] [(KM/mol)] [arbitrary]
 ------ ---------- || -------------- ----------------- ---------- -----------
    1       -0.000 ||    0.000371           0.009         0.361       0.045
    2        0.000 ||    0.000731           0.017         0.713       0.088
    3        0.000 ||    0.000767           0.018         0.747       0.092
    4        0.000 ||    0.000007           0.000         0.007       0.001
    5        0.000 ||    0.000315           0.007         0.308       0.038
    6        0.000 ||    0.000516           0.012         0.503       0.062
    7       60.995 ||    0.001944           0.045         1.896       0.234
    8      126.998 ||    0.006745           0.156         6.576       0.813
    9      156.456 ||    0.009064           0.209         8.836       1.093
   10      424.340 ||    0.004859           0.112         4.736       0.586
   11      539.211 ||    0.020050           0.463        19.545       2.417
   12      541.029 ||    0.006534           0.151         6.370       0.788
   13      619.931 ||    0.013711           0.316        13.366       1.653
   14      682.854 ||    0.007166           0.165         6.986       0.864
   15      725.778 ||    0.075267           1.736        73.374       9.074
   16      873.898 ||    0.002226           0.051         2.170       0.268
   17     1115.236 ||    0.041861           0.966        40.809       5.047
   18     1148.869 ||    0.007233           0.167         7.051       0.872
   19     1212.095 ||    0.005769           0.133         5.624       0.696
   20     1353.435 ||    0.185619           4.282       180.950      22.378
   21     1509.837 ||    0.084141           1.941        82.025      10.144
   22     1551.096 ||    0.048308           1.115        47.093       5.824
   23     1609.695 ||    0.005409           0.125         5.273       0.652
   24     1620.404 ||    0.011367           0.262        11.081       1.370
   25     1958.496 ||    0.640267          14.771       624.164      77.189
   26     2360.634 ||    1.263585          29.152      1231.805     152.334
   27     3204.961 ||    0.006241           0.144         6.084       0.752
   28     3261.638 ||    0.013733           0.317        13.388       1.656
   29     3325.335 ||    0.008793           0.203         8.572       1.060
   30     3399.836 ||    0.015847           0.366        15.448       1.910
 ----------------------------------------------------------------------------



 vib:animation  F

 Task  times  cpu:       82.6s     wall:       74.9s


                                NWChem Input Module
                                -------------------


 Summary of allocated global arrays
-----------------------------------
  No active global arrays



                         GA Statistics for process    0
                         ------------------------------

       create   destroy   get      put      acc     scatter   gather  read&inc
calls: 1.34e+04 1.34e+04 9.52e+05 2.72e+05 4.93e+05  661        0     1.99e+04 
number of processes/call 1.10e+00 1.29e+00 1.06e+00 0.00e+00 0.00e+00
bytes total:             2.81e+09 6.62e+08 3.67e+09 8.27e+03 0.00e+00 1.59e+05
bytes remote:            1.09e+09 5.85e+07 2.38e+09 -8.27e+03 0.00e+00 0.00e+00
Max memory consumed for GA by this process: 13125568 bytes

MA_summarize_allocated_blocks: starting scan ...
MA_summarize_allocated_blocks: scan completed: 0 heap blocks, 0 stack blocks
MA usage statistics:

	allocation statistics:
					      heap	     stack
					      ----	     -----
	current number of blocks	         0	         0
	maximum number of blocks	        24	        36
	current total bytes		         0	         0
	maximum total bytes		    268808	  82248408
	maximum total K-bytes		       269	     82249
	maximum total M-bytes		         1	        83


                                     CITATION
                                     --------
                Please cite the following reference when publishing
                           results obtained with NWChem:

                 M. Valiev, E.J. Bylaska, N. Govind, K. Kowalski,
              T.P. Straatsma, H.J.J. van Dam, D. Wang, J. Nieplocha,
                        E. Apra, T.L. Windus, W.A. de Jong
                 "NWChem: a comprehensive and scalable open-source
                  solution for large scale molecular simulations"
                      Comput. Phys. Commun. 181, 1477 (2010)
                           doi:10.1016/j.cpc.2010.04.018

                                      AUTHORS
                                      -------
          E. Apra, E. J. Bylaska, W. A. de Jong, N. Govind, K. Kowalski,
       T. P. Straatsma, M. Valiev, H. J. J. van Dam, D. Wang, T. L. Windus,
        J. Hammond, J. Autschbach, K. Bhaskaran-Nair, J. Brabec, K. Lopata,
    S. A. Fischer, S. Krishnamoorthy, M. Jacquelin, W. Ma, M. Klemm, O. Villa,
      Y. Chen, V. Anisimov, F. Aquino, S. Hirata, M. T. Hackler, V. Konjkov,
            D. Mejia-Rodriguez, T. Risthaus, M. Malagoli, A. Marenich,
   A. Otero-de-la-Roza, J. Mullin, P. Nichols, R. Peverati, J. Pittner, Y. Zhao,
        P.-D. Fan, A. Fonari, M. J. Williamson, R. J. Harrison, J. R. Rehr,
      M. Dupuis, D. Silverstein, D. M. A. Smith, J. Nieplocha, V. Tipparaju,
    M. Krishnan, B. E. Van Kuiken, A. Vazquez-Mayagoitia, L. Jensen, M. Swart,
      Q. Wu, T. Van Voorhis, A. A. Auer, M. Nooijen, L. D. Crosby, E. Brown,
      G. Cisneros, G. I. Fann, H. Fruchtl, J. Garza, K. Hirao, R. A. Kendall,
      J. A. Nichols, K. Tsemekhman, K. Wolinski, J. Anchell, D. E. Bernholdt,
      P. Borowski, T. Clark, D. Clerc, H. Dachsel, M. J. O. Deegan, K. Dyall,
    D. Elwood, E. Glendening, M. Gutowski, A. C. Hess, J. Jaffe, B. G. Johnson,
     J. Ju, R. Kobayashi, R. Kutteh, Z. Lin, R. Littlefield, X. Long, B. Meng,
      T. Nakajima, S. Niu, L. Pollack, M. Rosing, K. Glaesemann, G. Sandrone,
      M. Stave, H. Taylor, G. Thomas, J. H. van Lenthe, A. T. Wong, Z. Zhang.

 Total times  cpu:     1193.3s     wall:     1153.2s
